13
* (null), Energy   -1000.0000000
C     1.628522    0.403282    0.009825   -0.131353   -0.084969    0.003686
C     1.558257   -0.920826    0.121541   -0.068766    0.074184   -0.008246
N     0.246846   -1.589915    0.143551    0.002038   -0.001338    0.000177
C    -1.074947   -0.737408    0.033678    0.000396    0.000168   -0.000004
N    -0.825093    0.582903   -0.073451    0.000621   -0.000020    0.000019
C     0.428005    1.271956   -0.097784    0.002990   -0.002795    0.000322
O    -2.088804   -1.345922    0.058464    0.000227    0.000016    0.000004
O     0.457572    2.462843   -0.197982   -0.000260    0.000928   -0.000086
H     2.412149   -1.597989    0.202997    0.806331   -0.649811    0.077812
H     0.131582   -2.147641    1.008616   -0.002067    0.009396   -0.020612
H    -1.651708    1.183769   -0.147738    0.004687   -0.001747    0.000279
H     2.594425    0.913409   -0.007422    1.501953    0.793139   -0.026845
H     0.175864   -2.288698   -0.617572   -0.003140    0.012722    0.018482
13
* Frequency(35) 3230.0300
C     1.613595    0.393625    0.010244   -0.131353   -0.084969    0.003686
C     1.550442   -0.912395    0.120604   -0.068766    0.074184   -0.008246
N     0.247077   -1.590067    0.143571    0.002038   -0.001338    0.000177
C    -1.074902   -0.737389    0.033677    0.000396    0.000168   -0.000004
N    -0.825022    0.582901   -0.073449    0.000621   -0.000020    0.000019
C     0.428345    1.271638   -0.097747    0.002990   -0.002795    0.000322
O    -2.088778   -1.345920    0.058465    0.000227    0.000016    0.000004
O     0.457543    2.462948   -0.197992   -0.000260    0.000928   -0.000086
H     2.503784   -1.671836    0.211840    0.806331   -0.649811    0.077812
H     0.131347   -2.146574    1.006273   -0.002067    0.009396   -0.020612
H    -1.651175    1.183571   -0.147706    0.004687   -0.001747    0.000279
H     2.765114    1.003545   -0.010473    1.501953    0.793139   -0.026845
H     0.175507   -2.287253   -0.615472   -0.003140    0.012722    0.018482
13
* Frequency(35) 3230.0300
C     1.600285    0.385015    0.010618   -0.131353   -0.084969    0.003686
C     1.543474   -0.904878    0.119769   -0.068766    0.074184   -0.008246
N     0.247284   -1.590202    0.143589    0.002038   -0.001338    0.000177
C    -1.074862   -0.737372    0.033677    0.000396    0.000168   -0.000004
N    -0.824959    0.582899   -0.073447    0.000621   -0.000020    0.000019
C     0.428648    1.271355   -0.097715    0.002990   -0.002795    0.000322
O    -2.088755   -1.345918    0.058465    0.000227    0.000016    0.000004
O     0.457516    2.463042   -0.198001   -0.000260    0.000928   -0.000086
H     2.585489   -1.737682    0.219724    0.806331   -0.649811    0.077812
H     0.131138   -2.145621    1.004185   -0.002067    0.009396   -0.020612
H    -1.650701    1.183394   -0.147678    0.004687   -0.001747    0.000279
H     2.917306    1.083914   -0.013193    1.501953    0.793139   -0.026845
H     0.175189   -2.285963   -0.613599   -0.003140    0.012722    0.018482
13
* Frequency(35) 3230.0300
C     1.590035    0.378385    0.010906   -0.131353   -0.084969    0.003686
C     1.538108   -0.899089    0.119125   -0.068766    0.074184   -0.008246
N     0.247443   -1.590306    0.143603    0.002038   -0.001338    0.000177
C    -1.074831   -0.737359    0.033677    0.000396    0.000168   -0.000004
N    -0.824911    0.582898   -0.073446    0.000621   -0.000020    0.000019
C     0.428881    1.271137   -0.097690    0.002990   -0.002795    0.000322
O    -2.088738   -1.345917    0.058466    0.000227    0.000016    0.000004
O     0.457496    2.463115   -0.198007   -0.000260    0.000928   -0.000086
H     2.648410   -1.788389    0.225796    0.806331   -0.649811    0.077812
H     0.130977   -2.144888    1.002576   -0.002067    0.009396   -0.020612
H    -1.650335    1.183257   -0.147656    0.004687   -0.001747    0.000279
H     3.034510    1.145805   -0.015288    1.501953    0.793139   -0.026845
H     0.174944   -2.284971   -0.612157   -0.003140    0.012722    0.018482
13
* Frequency(35) 3230.0300
C     1.583956    0.374452    0.011076   -0.131353   -0.084969    0.003686
C     1.534925   -0.895656    0.118744   -0.068766    0.074184   -0.008246
N     0.247537   -1.590368    0.143611    0.002038   -0.001338    0.000177
C    -1.074813   -0.737351    0.033677    0.000396    0.000168   -0.000004
N    -0.824882    0.582897   -0.073445    0.000621   -0.000020    0.000019
C     0.429019    1.271007   -0.097675    0.002990   -0.002795    0.000322
O    -2.088727   -1.345916    0.058466    0.000227    0.000016    0.000004
O     0.457484    2.463158   -0.198011   -0.000260    0.000928   -0.000086
H     2.685729   -1.818463    0.229398    0.806331   -0.649811    0.077812
H     0.130881   -2.144453    1.001622   -0.002067    0.009396   -0.020612
H    -1.650118    1.183177   -0.147643    0.004687   -0.001747    0.000279
H     3.104023    1.182513   -0.016530    1.501953    0.793139   -0.026845
H     0.174799   -2.284382   -0.611301   -0.003140    0.012722    0.018482
13
* Frequency(35) 3230.0300
C     1.582706    0.373644    0.011111   -0.131353   -0.084969    0.003686
C     1.534271   -0.894950    0.118665   -0.068766    0.074184   -0.008246
N     0.247557   -1.590381    0.143613    0.002038   -0.001338    0.000177
C    -1.074809   -0.737349    0.033676    0.000396    0.000168   -0.000004
N    -0.824876    0.582897   -0.073445    0.000621   -0.000020    0.000019
C     0.429048    1.270981   -0.097672    0.002990   -0.002795    0.000322
O    -2.088725   -1.345916    0.058466    0.000227    0.000016    0.000004
O     0.457482    2.463166   -0.198012   -0.000260    0.000928   -0.000086
H     2.693401   -1.824646    0.230138    0.806331   -0.649811    0.077812
H     0.130861   -2.144364    1.001426   -0.002067    0.009396   -0.020612
H    -1.650073    1.183160   -0.147641    0.004687   -0.001747    0.000279
H     3.118313    1.190060   -0.016786    1.501953    0.793139   -0.026845
H     0.174769   -2.284261   -0.611125   -0.003140    0.012722    0.018482
13
* Frequency(35) 3230.0300
C     1.586421    0.376047    0.011007   -0.131353   -0.084969    0.003686
C     1.536216   -0.897048    0.118898   -0.068766    0.074184   -0.008246
N     0.247499   -1.590343    0.143608    0.002038   -0.001338    0.000177
C    -1.074820   -0.737354    0.033677    0.000396    0.000168   -0.000004
N    -0.824894    0.582897   -0.073445    0.000621   -0.000020    0.000019
C     0.428963    1.271060   -0.097681    0.002990   -0.002795    0.000322
O    -2.088731   -1.345917    0.058466    0.000227    0.000016    0.000004
O     0.457489    2.463140   -0.198010   -0.000260    0.000928   -0.000086
H     2.670594   -1.806267    0.227937    0.806331   -0.649811    0.077812
H     0.130920   -2.144630    1.002009   -0.002067    0.009396   -0.020612
H    -1.650206    1.183209   -0.147649    0.004687   -0.001747    0.000279
H     3.075832    1.167627   -0.016026    1.501953    0.793139   -0.026845
H     0.174857   -2.284621   -0.611648   -0.003140    0.012722    0.018482
13
* Frequency(35) 3230.0300
C     1.594698    0.381402    0.010775   -0.131353   -0.084969    0.003686
C     1.540550   -0.901723    0.119418   -0.068766    0.074184   -0.008246
N     0.247371   -1.590259    0.143597    0.002038   -0.001338    0.000177
C    -1.074845   -0.737365    0.033677    0.000396    0.000168   -0.000004
N    -0.824933    0.582898   -0.073446    0.000621   -0.000020    0.000019
C     0.428775    1.271236   -0.097701    0.002990   -0.002795    0.000322
O    -2.088746   -1.345918    0.058465    0.000227    0.000016    0.000004
O     0.457505    2.463082   -0.198004   -0.000260    0.000928   -0.000086
H     2.619782   -1.765317    0.223034    0.806331   -0.649811    0.077812
H     0.131050   -2.145222    1.003308   -0.002067    0.009396   -0.020612
H    -1.650501    1.183320   -0.147666    0.004687   -0.001747    0.000279
H     2.981183    1.117645   -0.014335    1.501953    0.793139   -0.026845
H     0.175055   -2.285422   -0.612813   -0.003140    0.012722    0.018482
13
* Frequency(35) 3230.0300
C     1.606641    0.389127    0.010439   -0.131353   -0.084969    0.003686
C     1.546802   -0.908468    0.120168   -0.068766    0.074184   -0.008246
N     0.247185   -1.590137    0.143580    0.002038   -0.001338    0.000177
C    -1.074881   -0.737380    0.033677    0.000396    0.000168   -0.000004
N    -0.824989    0.582900   -0.073448    0.000621   -0.000020    0.000019
C     0.428503    1.271490   -0.097730    0.002990   -0.002795    0.000322
O    -2.088766   -1.345919    0.058465    0.000227    0.000016    0.000004
O     0.457529    2.462997   -0.197997   -0.000260    0.000928   -0.000086
H     2.546469   -1.706235    0.215959    0.806331   -0.649811    0.077812
H     0.131238   -2.146076    1.005182   -0.002067    0.009396   -0.020612
H    -1.650927    1.183478   -0.147692    0.004687   -0.001747    0.000279
H     2.844623    1.045532   -0.011894    1.501953    0.793139   -0.026845
H     0.175341   -2.286579   -0.614493   -0.003140    0.012722    0.018482
13
* Frequency(35) 3230.0300
C     1.620955    0.398387    0.010038   -0.131353   -0.084969    0.003686
C     1.554296   -0.916552    0.121066   -0.068766    0.074184   -0.008246
N     0.246963   -1.589992    0.143561    0.002038   -0.001338    0.000177
C    -1.074925   -0.737398    0.033678    0.000396    0.000168   -0.000004
N    -0.825057    0.582902   -0.073450    0.000621   -0.000020    0.000019
C     0.428177    1.271795   -0.097765    0.002990   -0.002795    0.000322
O    -2.088791   -1.345921    0.058465    0.000227    0.000016    0.000004
O     0.457557    2.462896   -0.197987   -0.000260    0.000928   -0.000086
H     2.458600   -1.635423    0.207479    0.806331   -0.649811    0.077812
H     0.131463   -2.147100    1.007428   -0.002067    0.009396   -0.020612
H    -1.651438    1.183669   -0.147722    0.004687   -0.001747    0.000279
H     2.680950    0.959100   -0.008968    1.501953    0.793139   -0.026845
H     0.175683   -2.287965   -0.616507   -0.003140    0.012722    0.018482
13
* Frequency(35) 3230.0300
C     1.636089    0.408176    0.009613   -0.131353   -0.084969    0.003686
C     1.562219   -0.925099    0.122016   -0.068766    0.074184   -0.008246
N     0.246728   -1.589837    0.143541    0.002038   -0.001338    0.000177
C    -1.074970   -0.737418    0.033678    0.000396    0.000168   -0.000004
N    -0.825129    0.582905   -0.073452    0.000621   -0.000020    0.000019
C     0.427833    1.272117   -0.097803    0.002990   -0.002795    0.000322
O    -2.088817   -1.345923    0.058464    0.000227    0.000016    0.000004
O     0.457587    2.462789   -0.197977   -0.000260    0.000928   -0.000086
H     2.365697   -1.560554    0.198514    0.806331   -0.649811    0.077812
H     0.131701   -2.148183    1.009803   -0.002067    0.009396   -0.020612
H    -1.651978    1.183870   -0.147754    0.004687   -0.001747    0.000279
H     2.507900    0.867718   -0.005876    1.501953    0.793139   -0.026845
H     0.176045   -2.289431   -0.618637   -0.003140    0.012722    0.018482
13
* Frequency(35) 3230.0300
C     1.650403    0.417436    0.009211   -0.131353   -0.084969    0.003686
C     1.569712   -0.933183    0.122915   -0.068766    0.074184   -0.008246
N     0.246506   -1.589692    0.143522    0.002038   -0.001338    0.000177
C    -1.075013   -0.737436    0.033678    0.000396    0.000168   -0.000004
N    -0.825196    0.582907   -0.073454    0.000621   -0.000020    0.000019
C     0.427507    1.272422   -0.097838    0.002990   -0.002795    0.000322
O    -2.088842   -1.345924    0.058464    0.000227    0.000016    0.000004
O     0.457615    2.462688   -0.197968   -0.000260    0.000928   -0.000086
H     2.277829   -1.489742    0.190035    0.806331   -0.649811    0.077812
H     0.131927   -2.149207    1.012049   -0.002067    0.009396   -0.020612
H    -1.652489    1.184061   -0.147785    0.004687   -0.001747    0.000279
H     2.344227    0.781287   -0.002950    1.501953    0.793139   -0.026845
H     0.176387   -2.290818   -0.620651   -0.003140    0.012722    0.018482
13
* Frequency(35) 3230.0300
C     1.662346    0.425161    0.008876   -0.131353   -0.084969    0.003686
C     1.575965   -0.939928    0.123665   -0.068766    0.074184   -0.008246
N     0.246321   -1.589570    0.143505    0.002038   -0.001338    0.000177
C    -1.075050   -0.737451    0.033679    0.000396    0.000168   -0.000004
N    -0.825253    0.582908   -0.073456    0.000621   -0.000020    0.000019
C     0.427235    1.272676   -0.097867    0.002990   -0.002795    0.000322
O    -2.088863   -1.345926    0.058463    0.000227    0.000016    0.000004
O     0.457639    2.462604   -0.197960   -0.000260    0.000928   -0.000086
H     2.204516   -1.430660    0.182960    0.806331   -0.649811    0.077812
H     0.132115   -2.150061    1.013923   -0.002067    0.009396   -0.020612
H    -1.652915    1.184219   -0.147810    0.004687   -0.001747    0.000279
H     2.207667    0.709173   -0.000509    1.501953    0.793139   -0.026845
H     0.176673   -2.291974   -0.622331   -0.003140    0.012722    0.018482
13
* Frequency(35) 3230.0300
C     1.670624    0.430516    0.008644   -0.131353   -0.084969    0.003686
C     1.580298   -0.944603    0.124185   -0.068766    0.074184   -0.008246
N     0.246192   -1.589486    0.143494    0.002038   -0.001338    0.000177
C    -1.075075   -0.737462    0.033679    0.000396    0.000168   -0.000004
N    -0.825292    0.582910   -0.073457    0.000621   -0.000020    0.000019
C     0.427047    1.272852   -0.097887    0.002990   -0.002795    0.000322
O    -2.088877   -1.345927    0.058463    0.000227    0.000016    0.000004
O     0.457655    2.462545   -0.197955   -0.000260    0.000928   -0.000086
H     2.153703   -1.389711    0.178056    0.806331   -0.649811    0.077812
H     0.132245   -2.150653    1.015222   -0.002067    0.009396   -0.020612
H    -1.653210    1.184330   -0.147828    0.004687   -0.001747    0.000279
H     2.113018    0.659192    0.001182    1.501953    0.793139   -0.026845
H     0.176871   -2.292776   -0.623496   -0.003140    0.012722    0.018482
13
* Frequency(35) 3230.0300
C     1.674339    0.432919    0.008540   -0.131353   -0.084969    0.003686
C     1.582243   -0.946701    0.124418   -0.068766    0.074184   -0.008246
N     0.246135   -1.589448    0.143489    0.002038   -0.001338    0.000177
C    -1.075086   -0.737467    0.033679    0.000396    0.000168   -0.000004
N    -0.825309    0.582910   -0.073457    0.000621   -0.000020    0.000019
C     0.426962    1.272931   -0.097896    0.002990   -0.002795    0.000322
O    -2.088884   -1.345927    0.058463    0.000227    0.000016    0.000004
O     0.457663    2.462519   -0.197952   -0.000260    0.000928   -0.000086
H     2.130897   -1.371332    0.175855    0.806331   -0.649811    0.077812
H     0.132303   -2.150919    1.015805   -0.002067    0.009396   -0.020612
H    -1.653343    1.184379   -0.147836    0.004687   -0.001747    0.000279
H     2.070537    0.636759    0.001941    1.501953    0.793139   -0.026845
H     0.176959   -2.293136   -0.624019   -0.003140    0.012722    0.018482
13
* Frequency(35) 3230.0300
C     1.673089    0.432111    0.008575   -0.131353   -0.084969    0.003686
C     1.581589   -0.945995    0.124339   -0.068766    0.074184   -0.008246
N     0.246154   -1.589461    0.143491    0.002038   -0.001338    0.000177
C    -1.075082   -0.737465    0.033679    0.000396    0.000168   -0.000004
N    -0.825304    0.582910   -0.073457    0.000621   -0.000020    0.000019
C     0.426991    1.272904   -0.097893    0.002990   -0.002795    0.000322
O    -2.088881   -1.345927    0.058463    0.000227    0.000016    0.000004
O     0.457660    2.462528   -0.197953   -0.000260    0.000928   -0.000086
H     2.138568   -1.377514    0.176596    0.806331   -0.649811    0.077812
H     0.132284   -2.150829    1.015609   -0.002067    0.009396   -0.020612
H    -1.653298    1.184362   -0.147833    0.004687   -0.001747    0.000279
H     2.084827    0.644305    0.001686    1.501953    0.793139   -0.026845
H     0.176930   -2.293015   -0.623843   -0.003140    0.012722    0.018482
13
* Frequency(35) 3230.0300
C     1.667010    0.428178    0.008745   -0.131353   -0.084969    0.003686
C     1.578406   -0.942562    0.123958   -0.068766    0.074184   -0.008246
N     0.246248   -1.589523    0.143499    0.002038   -0.001338    0.000177
C    -1.075064   -0.737457    0.033679    0.000396    0.000168   -0.000004
N    -0.825275    0.582909   -0.073456    0.000621   -0.000020    0.000019
C     0.427129    1.272775   -0.097878    0.002990   -0.002795    0.000322
O    -2.088871   -1.345926    0.058463    0.000227    0.000016    0.000004
O     0.457648    2.462571   -0.197957   -0.000260    0.000928   -0.000086
H     2.175887   -1.407589    0.180197    0.806331   -0.649811    0.077812
H     0.132188   -2.150395    1.014655   -0.002067    0.009396   -0.020612
H    -1.653081    1.184281   -0.147820    0.004687   -0.001747    0.000279
H     2.154340    0.681013    0.000444    1.501953    0.793139   -0.026845
H     0.176784   -2.292426   -0.622988   -0.003140    0.012722    0.018482
13
* Frequency(35) 3230.0300
C     1.656760    0.421548    0.009033   -0.131353   -0.084969    0.003686
C     1.573040   -0.936773    0.123314   -0.068766    0.074184   -0.008246
N     0.246407   -1.589627    0.143513    0.002038   -0.001338    0.000177
C    -1.075033   -0.737444    0.033679    0.000396    0.000168   -0.000004
N    -0.825226    0.582908   -0.073455    0.000621   -0.000020    0.000019
C     0.427362    1.272557   -0.097853    0.002990   -0.002795    0.000322
O    -2.088853   -1.345925    0.058463    0.000227    0.000016    0.000004
O     0.457628    2.462643   -0.197964   -0.000260    0.000928   -0.000086
H     2.238808   -1.458296    0.186269    0.806331   -0.649811    0.077812
H     0.132027   -2.149661    1.013047   -0.002067    0.009396   -0.020612
H    -1.652716    1.184145   -0.147798    0.004687   -0.001747    0.000279
H     2.271543    0.742905   -0.001651    1.501953    0.793139   -0.026845
H     0.176539   -2.291433   -0.621545   -0.003140    0.012722    0.018482
13
* Frequency(35) 3230.0300
C     1.643450    0.412938    0.009406   -0.131353   -0.084969    0.003686
C     1.566072   -0.929256    0.122479   -0.068766    0.074184   -0.008246
N     0.246614   -1.589763    0.143531    0.002038   -0.001338    0.000177
C    -1.074992   -0.737427    0.033678    0.000396    0.000168   -0.000004
N    -0.825163    0.582906   -0.073453    0.000621   -0.000020    0.000019
C     0.427665    1.272274   -0.097821    0.002990   -0.002795    0.000322
O    -2.088830   -1.345923    0.058464    0.000227    0.000016    0.000004
O     0.457602    2.462737   -0.197972   -0.000260    0.000928   -0.000086
H     2.320513   -1.524141    0.194154    0.806331   -0.649811    0.077812
H     0.131817   -2.148709    1.010958   -0.002067    0.009396   -0.020612
H    -1.652241    1.183968   -0.147770    0.004687   -0.001747    0.000279
H     2.423736    0.823273   -0.004371    1.501953    0.793139   -0.026845
H     0.176221   -2.290144   -0.619673   -0.003140    0.012722    0.018482
13
* Frequency(35) 3230.0300
C     1.628522    0.403282    0.009825   -0.131353   -0.084969    0.003686
C     1.558257   -0.920826    0.121541   -0.068766    0.074184   -0.008246
N     0.246846   -1.589915    0.143551    0.002038   -0.001338    0.000177
C    -1.074947   -0.737408    0.033678    0.000396    0.000168   -0.000004
N    -0.825093    0.582903   -0.073451    0.000621   -0.000020    0.000019
C     0.428005    1.271956   -0.097784    0.002990   -0.002795    0.000322
O    -2.088804   -1.345922    0.058464    0.000227    0.000016    0.000004
O     0.457572    2.462843   -0.197982   -0.000260    0.000928   -0.000086
H     2.412149   -1.597989    0.202997    0.806331   -0.649811    0.077812
H     0.131582   -2.147641    1.008616   -0.002067    0.009396   -0.020612
H    -1.651708    1.183769   -0.147738    0.004687   -0.001747    0.000279
H     2.594425    0.913409   -0.007422    1.501953    0.793139   -0.026845
H     0.175864   -2.288698   -0.617572   -0.003140    0.012722    0.018482
