13
* (null), Energy   -1000.0000000
C     1.372793    0.529851   -0.015036   -0.000035   -0.000251    0.000219
C     1.302724   -0.794210    0.095800    0.003512   -0.010572   -0.121921
N    -0.008640   -1.463020    0.118827   -0.000994    0.002487    0.028078
C    -1.330555   -0.610659    0.008144   -0.003416    0.010260    0.122410
N    -1.080705    0.709657   -0.097399    0.000163   -0.000522   -0.009267
C     0.172593    1.398876   -0.122183    0.000514   -0.000646   -0.007261
O    -2.344242   -1.219751    0.031049    0.000654   -0.001707   -0.020568
O     0.201841    2.589695   -0.223265   -0.000124    0.000101    0.001349
H     2.156844   -1.471062    0.176152   -0.000325    0.010978    0.100416
H    -0.124198   -2.019917    0.984598   -1.397448    0.077641   -0.098290
H    -1.907129    1.310644   -0.173530    0.000532   -0.002970   -0.032790
H     2.338608    1.040183   -0.032851   -0.004692    0.014145    0.160723
H    -0.080594   -2.162817   -0.641747    1.398206   -0.087204   -0.008338
13
* Frequency(25) 1252.5222
C     1.372789    0.529823   -0.015011   -0.000035   -0.000251    0.000219
C     1.303123   -0.795411    0.081945    0.003512   -0.010572   -0.121921
N    -0.008753   -1.462738    0.122018   -0.000994    0.002487    0.028078
C    -1.330944   -0.609493    0.022056   -0.003416    0.010260    0.122410
N    -1.080686    0.709598   -0.098452    0.000163   -0.000522   -0.009267
C     0.172652    1.398802   -0.123008    0.000514   -0.000646   -0.007261
O    -2.344168   -1.219945    0.028711    0.000654   -0.001707   -0.020568
O     0.201827    2.589707   -0.223111   -0.000124    0.000101    0.001349
H     2.156807   -1.469814    0.187564   -0.000325    0.010978    0.100416
H    -0.283010   -2.011093    0.973428   -1.397448    0.077641   -0.098290
H    -1.907068    1.310306   -0.177256    0.000532   -0.002970   -0.032790
H     2.338074    1.041790   -0.014586   -0.004692    0.014145    0.160723
H     0.078305   -2.172727   -0.642695    1.398206   -0.087204   -0.008338
13
* Frequency(25) 1252.5222
C     1.372785    0.529797   -0.014989   -0.000035   -0.000251    0.000219
C     1.303479   -0.796482    0.069590    0.003512   -0.010572   -0.121921
N    -0.008854   -1.462486    0.124863   -0.000994    0.002487    0.028078
C    -1.331290   -0.608454    0.034459   -0.003416    0.010260    0.122410
N    -1.080670    0.709545   -0.099391    0.000163   -0.000522   -0.009267
C     0.172704    1.398737   -0.123744    0.000514   -0.000646   -0.007261
O    -2.344101   -1.220118    0.026627    0.000654   -0.001707   -0.020568
O     0.201815    2.589717   -0.222975   -0.000124    0.000101    0.001349
H     2.156774   -1.468702    0.197739   -0.000325    0.010978    0.100416
H    -0.424613   -2.003226    0.963468   -1.397448    0.077641   -0.098290
H    -1.907014    1.310005   -0.180579    0.000532   -0.002970   -0.032790
H     2.337599    1.043223    0.001700   -0.004692    0.014145    0.160723
H     0.219985   -2.181564   -0.643540    1.398206   -0.087204   -0.008338
13
* Frequency(25) 1252.5222
C     1.372783    0.529778   -0.014972   -0.000035   -0.000251    0.000219
C     1.303753   -0.797307    0.060077    0.003512   -0.010572   -0.121921
N    -0.008931   -1.462292    0.127054   -0.000994    0.002487    0.028078
C    -1.331556   -0.607653    0.044012   -0.003416    0.010260    0.122410
N    -1.080657    0.709504   -0.100114    0.000163   -0.000522   -0.009267
C     0.172744    1.398687   -0.124310    0.000514   -0.000646   -0.007261
O    -2.344050   -1.220251    0.025022    0.000654   -0.001707   -0.020568
O     0.201805    2.589725   -0.222870   -0.000124    0.000101    0.001349
H     2.156748   -1.467845    0.205575   -0.000325    0.010978    0.100416
H    -0.533661   -1.997167    0.955798   -1.397448    0.077641   -0.098290
H    -1.906973    1.309773   -0.183137    0.000532   -0.002970   -0.032790
H     2.337233    1.044327    0.014242   -0.004692    0.014145    0.160723
H     0.329092   -2.188369   -0.644190    1.398206   -0.087204   -0.008338
13
* Frequency(25) 1252.5222
C     1.372781    0.529766   -0.014962   -0.000035   -0.000251    0.000219
C     1.303915   -0.797797    0.054434    0.003512   -0.010572   -0.121921
N    -0.008977   -1.462177    0.128354   -0.000994    0.002487    0.028078
C    -1.331715   -0.607178    0.049677   -0.003416    0.010260    0.122410
N    -1.080650    0.709480   -0.100543    0.000163   -0.000522   -0.009267
C     0.172768    1.398657   -0.124646    0.000514   -0.000646   -0.007261
O    -2.344020   -1.220330    0.024070    0.000654   -0.001707   -0.020568
O     0.201799    2.589730   -0.222807   -0.000124    0.000101    0.001349
H     2.156733   -1.467337    0.210222   -0.000325    0.010978    0.100416
H    -0.598338   -1.993574    0.951249   -1.397448    0.077641   -0.098290
H    -1.906948    1.309636   -0.184655    0.000532   -0.002970   -0.032790
H     2.337016    1.044982    0.021680   -0.004692    0.014145    0.160723
H     0.393804   -2.192405   -0.644576    1.398206   -0.087204   -0.008338
13
* Frequency(25) 1252.5222
C     1.372781    0.529764   -0.014960   -0.000035   -0.000251    0.000219
C     1.303949   -0.797897    0.053274    0.003512   -0.010572   -0.121921
N    -0.008987   -1.462153    0.128621   -0.000994    0.002487    0.028078
C    -1.331747   -0.607081    0.050842   -0.003416    0.010260    0.122410
N    -1.080648    0.709475   -0.100631    0.000163   -0.000522   -0.009267
C     0.172773    1.398650   -0.124715    0.000514   -0.000646   -0.007261
O    -2.344014   -1.220346    0.023875    0.000654   -0.001707   -0.020568
O     0.201798    2.589731   -0.222794   -0.000124    0.000101    0.001349
H     2.156730   -1.467232    0.211177   -0.000325    0.010978    0.100416
H    -0.611634   -1.992835    0.950314   -1.397448    0.077641   -0.098290
H    -1.906943    1.309608   -0.184967    0.000532   -0.002970   -0.032790
H     2.336971    1.045116    0.023210   -0.004692    0.014145    0.160723
H     0.407107   -2.193234   -0.644656    1.398206   -0.087204   -0.008338
13
* Frequency(25) 1252.5222
C     1.372782    0.529771   -0.014966   -0.000035   -0.000251    0.000219
C     1.303850   -0.797598    0.056722    0.003512   -0.010572   -0.121921
N    -0.008959   -1.462223    0.127827   -0.000994    0.002487    0.028078
C    -1.331650   -0.607371    0.047379   -0.003416    0.010260    0.122410
N    -1.080653    0.709490   -0.100369    0.000163   -0.000522   -0.009267
C     0.172758    1.398669   -0.124510    0.000514   -0.000646   -0.007261
O    -2.344032   -1.220298    0.024456    0.000654   -0.001707   -0.020568
O     0.201801    2.589728   -0.222832   -0.000124    0.000101    0.001349
H     2.156739   -1.467543    0.208337   -0.000325    0.010978    0.100416
H    -0.572109   -1.995031    0.953094   -1.397448    0.077641   -0.098290
H    -1.906958    1.309692   -0.184040    0.000532   -0.002970   -0.032790
H     2.337104    1.044716    0.018664   -0.004692    0.014145    0.160723
H     0.367560   -2.190768   -0.644420    1.398206   -0.087204   -0.008338
13
* Frequency(25) 1252.5222
C     1.372784    0.529787   -0.014980   -0.000035   -0.000251    0.000219
C     1.303628   -0.796932    0.064405    0.003512   -0.010572   -0.121921
N    -0.008896   -1.462380    0.126057   -0.000994    0.002487    0.028078
C    -1.331435   -0.608017    0.039665   -0.003416    0.010260    0.122410
N    -1.080663    0.709522   -0.099785    0.000163   -0.000522   -0.009267
C     0.172726    1.398709   -0.124052    0.000514   -0.000646   -0.007261
O    -2.344073   -1.220190    0.025752    0.000654   -0.001707   -0.020568
O     0.201809    2.589721   -0.222917   -0.000124    0.000101    0.001349
H     2.156760   -1.468235    0.202009   -0.000325    0.010978    0.100416
H    -0.484045   -1.999924    0.959288   -1.397448    0.077641   -0.098290
H    -1.906992    1.309879   -0.181973    0.000532   -0.002970   -0.032790
H     2.337399    1.043825    0.008535   -0.004692    0.014145    0.160723
H     0.279449   -2.185272   -0.643894    1.398206   -0.087204   -0.008338
13
* Frequency(25) 1252.5222
C     1.372787    0.529809   -0.015000   -0.000035   -0.000251    0.000219
C     1.303309   -0.795971    0.075491    0.003512   -0.010572   -0.121921
N    -0.008806   -1.462606    0.123505   -0.000994    0.002487    0.028078
C    -1.331125   -0.608950    0.028536   -0.003416    0.010260    0.122410
N    -1.080678    0.709570   -0.098942    0.000163   -0.000522   -0.009267
C     0.172679    1.398768   -0.123392    0.000514   -0.000646   -0.007261
O    -2.344133   -1.220035    0.027623    0.000654   -0.001707   -0.020568
O     0.201821    2.589712   -0.223040   -0.000124    0.000101    0.001349
H     2.156789   -1.469233    0.192879   -0.000325    0.010978    0.100416
H    -0.356987   -2.006983    0.968225   -1.397448    0.077641   -0.098290
H    -1.907040    1.310149   -0.178992    0.000532   -0.002970   -0.032790
H     2.337826    1.042539   -0.006078   -0.004692    0.014145    0.160723
H     0.152322   -2.177344   -0.643136    1.398206   -0.087204   -0.008338
13
* Frequency(25) 1252.5222
C     1.372791    0.529837   -0.015023   -0.000035   -0.000251    0.000219
C     1.302926   -0.794819    0.088777    0.003512   -0.010572   -0.121921
N    -0.008697   -1.462877    0.120445   -0.000994    0.002487    0.028078
C    -1.330752   -0.610068    0.015196   -0.003416    0.010260    0.122410
N    -1.080696    0.709627   -0.097933    0.000163   -0.000522   -0.009267
C     0.172623    1.398839   -0.122601    0.000514   -0.000646   -0.007261
O    -2.344204   -1.219849    0.029864    0.000654   -0.001707   -0.020568
O     0.201834    2.589701   -0.223187   -0.000124    0.000101    0.001349
H     2.156825   -1.470429    0.181937   -0.000325    0.010978    0.100416
H    -0.204702   -2.015444    0.978936   -1.397448    0.077641   -0.098290
H    -1.907098    1.310473   -0.175419    0.000532   -0.002970   -0.032790
H     2.338337    1.040998   -0.023592   -0.004692    0.014145    0.160723
H    -0.000046   -2.167841   -0.642228    1.398206   -0.087204   -0.008338
13
* Frequency(25) 1252.5222
C     1.372795    0.529866   -0.015049   -0.000035   -0.000251    0.000219
C     1.302522   -0.793600    0.102824    0.003512   -0.010572   -0.121921
N    -0.008583   -1.463164    0.117210   -0.000994    0.002487    0.028078
C    -1.330359   -0.611250    0.001093   -0.003416    0.010260    0.122410
N    -1.080714    0.709687   -0.096865    0.000163   -0.000522   -0.009267
C     0.172564    1.398913   -0.121764    0.000514   -0.000646   -0.007261
O    -2.344280   -1.219653    0.032234    0.000654   -0.001707   -0.020568
O     0.201848    2.589689   -0.223342   -0.000124    0.000101    0.001349
H     2.156862   -1.471694    0.170367   -0.000325    0.010978    0.100416
H    -0.043693   -2.024389    0.990260   -1.397448    0.077641   -0.098290
H    -1.907159    1.310815   -0.171641    0.000532   -0.002970   -0.032790
H     2.338878    1.039368   -0.042110   -0.004692    0.014145    0.160723
H    -0.161142   -2.157793   -0.641267    1.398206   -0.087204   -0.008338
13
* Frequency(25) 1252.5222
C     1.372799    0.529893   -0.015073   -0.000035   -0.000251    0.000219
C     1.302139   -0.792448    0.116110    0.003512   -0.010572   -0.121921
N    -0.008475   -1.463435    0.114150   -0.000994    0.002487    0.028078
C    -1.329986   -0.612368   -0.012247   -0.003416    0.010260    0.122410
N    -1.080732    0.709744   -0.095855    0.000163   -0.000522   -0.009267
C     0.172508    1.398983   -0.120973    0.000514   -0.000646   -0.007261
O    -2.344351   -1.219467    0.034475    0.000654   -0.001707   -0.020568
O     0.201862    2.589678   -0.223489   -0.000124    0.000101    0.001349
H     2.156898   -1.472890    0.159424   -0.000325    0.010978    0.100416
H     0.108592   -2.032850    1.000971   -1.397448    0.077641   -0.098290
H    -1.907217    1.311138   -0.168068    0.000532   -0.002970   -0.032790
H     2.339389    1.037826   -0.059625   -0.004692    0.014145    0.160723
H    -0.313509   -2.148290   -0.640358    1.398206   -0.087204   -0.008338
13
* Frequency(25) 1252.5222
C     1.372802    0.529916   -0.015093   -0.000035   -0.000251    0.000219
C     1.301820   -0.791487    0.127195    0.003512   -0.010572   -0.121921
N    -0.008384   -1.463661    0.111597   -0.000994    0.002487    0.028078
C    -1.329676   -0.613301   -0.023376   -0.003416    0.010260    0.122410
N    -1.080747    0.709791   -0.095012    0.000163   -0.000522   -0.009267
C     0.172461    1.399042   -0.120313    0.000514   -0.000646   -0.007261
O    -2.344410   -1.219311    0.036345    0.000654   -0.001707   -0.020568
O     0.201873    2.589669   -0.223612   -0.000124    0.000101    0.001349
H     2.156927   -1.473889    0.150294   -0.000325    0.010978    0.100416
H     0.235650   -2.039909    1.009908   -1.397448    0.077641   -0.098290
H    -1.907266    1.311408   -0.165086    0.000532   -0.002970   -0.032790
H     2.339816    1.036540   -0.074238   -0.004692    0.014145    0.160723
H    -0.440636   -2.140362   -0.639600    1.398206   -0.087204   -0.008338
13
* Frequency(25) 1252.5222
C     1.372804    0.529931   -0.015106   -0.000035   -0.000251    0.000219
C     1.301598   -0.790821    0.134878    0.003512   -0.010572   -0.121921
N    -0.008322   -1.463817    0.109828   -0.000994    0.002487    0.028078
C    -1.329460   -0.613948   -0.031090   -0.003416    0.010260    0.122410
N    -1.080757    0.709824   -0.094428    0.000163   -0.000522   -0.009267
C     0.172429    1.399083   -0.119855    0.000514   -0.000646   -0.007261
O    -2.344452   -1.219204    0.037641    0.000654   -0.001707   -0.020568
O     0.201881    2.589663   -0.223697   -0.000124    0.000101    0.001349
H     2.156948   -1.474580    0.143966   -0.000325    0.010978    0.100416
H     0.323714   -2.044802    1.016102   -1.397448    0.077641   -0.098290
H    -1.907299    1.311596   -0.163020    0.000532   -0.002970   -0.032790
H     2.340111    1.035649   -0.084367   -0.004692    0.014145    0.160723
H    -0.528747   -2.134866   -0.639075    1.398206   -0.087204   -0.008338
13
* Frequency(25) 1252.5222
C     1.372805    0.529939   -0.015113   -0.000035   -0.000251    0.000219
C     1.301499   -0.790522    0.138327    0.003512   -0.010572   -0.121921
N    -0.008294   -1.463888    0.109033   -0.000994    0.002487    0.028078
C    -1.329364   -0.614238   -0.034553   -0.003416    0.010260    0.122410
N    -1.080762    0.709839   -0.094166    0.000163   -0.000522   -0.009267
C     0.172414    1.399101   -0.119650    0.000514   -0.000646   -0.007261
O    -2.344470   -1.219156    0.038223    0.000654   -0.001707   -0.020568
O     0.201884    2.589660   -0.223735   -0.000124    0.000101    0.001349
H     2.156957   -1.474891    0.141126   -0.000325    0.010978    0.100416
H     0.363239   -2.046998    1.018882   -1.397448    0.077641   -0.098290
H    -1.907314    1.311680   -0.162092    0.000532   -0.002970   -0.032790
H     2.340244    1.035249   -0.088912   -0.004692    0.014145    0.160723
H    -0.568294   -2.132400   -0.638839    1.398206   -0.087204   -0.008338
13
* Frequency(25) 1252.5222
C     1.372805    0.529936   -0.015111   -0.000035   -0.000251    0.000219
C     1.301532   -0.790622    0.137167    0.003512   -0.010572   -0.121921
N    -0.008303   -1.463864    0.109301   -0.000994    0.002487    0.028078
C    -1.329396   -0.614140   -0.033388   -0.003416    0.010260    0.122410
N    -1.080760    0.709834   -0.094254    0.000163   -0.000522   -0.009267
C     0.172419    1.399095   -0.119719    0.000514   -0.000646   -0.007261
O    -2.344464   -1.219172    0.038027    0.000654   -0.001707   -0.020568
O     0.201883    2.589661   -0.223722   -0.000124    0.000101    0.001349
H     2.156954   -1.474787    0.142082   -0.000325    0.010978    0.100416
H     0.349943   -2.046259    1.017947   -1.397448    0.077641   -0.098290
H    -1.907309    1.311651   -0.162404    0.000532   -0.002970   -0.032790
H     2.340200    1.035384   -0.087383   -0.004692    0.014145    0.160723
H    -0.554991   -2.133230   -0.638918    1.398206   -0.087204   -0.008338
13
* Frequency(25) 1252.5222
C     1.372803    0.529925   -0.015100   -0.000035   -0.000251    0.000219
C     1.301695   -0.791112    0.131524    0.003512   -0.010572   -0.121921
N    -0.008349   -1.463749    0.110600   -0.000994    0.002487    0.028078
C    -1.329554   -0.613665   -0.027723   -0.003416    0.010260    0.122410
N    -1.080753    0.709810   -0.094683    0.000163   -0.000522   -0.009267
C     0.172443    1.399065   -0.120055    0.000514   -0.000646   -0.007261
O    -2.344434   -1.219251    0.037075    0.000654   -0.001707   -0.020568
O     0.201878    2.589666   -0.223660   -0.000124    0.000101    0.001349
H     2.156939   -1.474278    0.146729   -0.000325    0.010978    0.100416
H     0.285266   -2.042666    1.013398   -1.397448    0.077641   -0.098290
H    -1.907285    1.311514   -0.163922    0.000532   -0.002970   -0.032790
H     2.339982    1.036038   -0.079945   -0.004692    0.014145    0.160723
H    -0.490279   -2.137266   -0.639304    1.398206   -0.087204   -0.008338
13
* Frequency(25) 1252.5222
C     1.372800    0.529905   -0.015083   -0.000035   -0.000251    0.000219
C     1.301969   -0.791937    0.122010    0.003512   -0.010572   -0.121921
N    -0.008426   -1.463555    0.112791   -0.000994    0.002487    0.028078
C    -1.329821   -0.612865   -0.018171   -0.003416    0.010260    0.122410
N    -1.080740    0.709769   -0.095406    0.000163   -0.000522   -0.009267
C     0.172483    1.399015   -0.120622    0.000514   -0.000646   -0.007261
O    -2.344383   -1.219384    0.035470    0.000654   -0.001707   -0.020568
O     0.201868    2.589673   -0.223555   -0.000124    0.000101    0.001349
H     2.156913   -1.473422    0.154565   -0.000325    0.010978    0.100416
H     0.176218   -2.036608    1.005728   -1.397448    0.077641   -0.098290
H    -1.907243    1.311282   -0.166481    0.000532   -0.002970   -0.032790
H     2.339616    1.037142   -0.067403   -0.004692    0.014145    0.160723
H    -0.381172   -2.144070   -0.639955    1.398206   -0.087204   -0.008338
13
* Frequency(25) 1252.5222
C     1.372797    0.529880   -0.015061   -0.000035   -0.000251    0.000219
C     1.302325   -0.793008    0.109656    0.003512   -0.010572   -0.121921
N    -0.008527   -1.463303    0.115636   -0.000994    0.002487    0.028078
C    -1.330167   -0.611825   -0.005767   -0.003416    0.010260    0.122410
N    -1.080724    0.709716   -0.096346    0.000163   -0.000522   -0.009267
C     0.172535    1.398949   -0.121358    0.000514   -0.000646   -0.007261
O    -2.344316   -1.219557    0.033386    0.000654   -0.001707   -0.020568
O     0.201855    2.589684   -0.223418   -0.000124    0.000101    0.001349
H     2.156881   -1.472309    0.164740   -0.000325    0.010978    0.100416
H     0.034615   -2.028740    0.995768   -1.397448    0.077641   -0.098290
H    -1.907189    1.310981   -0.169803    0.000532   -0.002970   -0.032790
H     2.339141    1.038575   -0.051117   -0.004692    0.014145    0.160723
H    -0.239492   -2.152907   -0.640800    1.398206   -0.087204   -0.008338
13
* Frequency(25) 1252.5222
C     1.372793    0.529851   -0.015036   -0.000035   -0.000251    0.000219
C     1.302724   -0.794210    0.095800    0.003512   -0.010572   -0.121921
N    -0.008640   -1.463020    0.118827   -0.000994    0.002487    0.028078
C    -1.330555   -0.610659    0.008144   -0.003416    0.010260    0.122410
N    -1.080705    0.709657   -0.097399    0.000163   -0.000522   -0.009267
C     0.172593    1.398876   -0.122183    0.000514   -0.000646   -0.007261
O    -2.344242   -1.219751    0.031049    0.000654   -0.001707   -0.020568
O     0.201841    2.589695   -0.223265   -0.000124    0.000101    0.001349
H     2.156844   -1.471062    0.176152   -0.000325    0.010978    0.100416
H    -0.124198   -2.019917    0.984598   -1.397448    0.077641   -0.098290
H    -1.907129    1.310644   -0.173530    0.000532   -0.002970   -0.032790
H     2.338608    1.040183   -0.032851   -0.004692    0.014145    0.160723
H    -0.080594   -2.162817   -0.641747    1.398206   -0.087204   -0.008338
