13
* (null), Energy   -1000.0000000
C     1.372793    0.529851   -0.015036    0.219520   -0.184283    0.031445
C     1.302724   -0.794210    0.095800    0.518419   -0.274019    0.042128
N    -0.008640   -1.463020    0.118827   -0.210950    0.335359   -0.031753
C    -1.330555   -0.610659    0.008144    0.225964   -0.374652    0.034622
N    -1.080705    0.709657   -0.097399   -0.229907   -0.249272    0.022179
C     0.172593    1.398876   -0.122183   -0.235092    0.269087   -0.049006
O    -2.344242   -1.219751    0.031049   -0.157963    0.104806   -0.012507
O     0.201841    2.589695   -0.223265    0.079282    0.326963   -0.020580
H     2.156844   -1.471062    0.176152    0.013993   -0.950324    0.019864
H    -0.124198   -2.019917    0.984598   -0.358805    0.263446   -0.094247
H    -1.907129    1.310644   -0.173530   -0.746669   -0.964119    0.036352
H     2.338608    1.040183   -0.032851    0.129667    0.025092   -0.023354
H    -0.080594   -2.162817   -0.641747   -0.347536    0.295476    0.014311
13
* Frequency(17)  815.6668
C     1.397740    0.508908   -0.011462    0.219520   -0.184283    0.031445
C     1.361640   -0.825350    0.100588    0.518419   -0.274019    0.042128
N    -0.032614   -1.424909    0.115219   -0.210950    0.335359   -0.031753
C    -1.304876   -0.653236    0.012079    0.225964   -0.374652    0.034622
N    -1.106833    0.681328   -0.094878   -0.229907   -0.249272    0.022179
C     0.145876    1.429456   -0.127752   -0.235092    0.269087   -0.049006
O    -2.362194   -1.207840    0.029627   -0.157963    0.104806   -0.012507
O     0.210851    2.626853   -0.225604    0.079282    0.326963   -0.020580
H     2.158434   -1.579061    0.178409    0.013993   -0.950324    0.019864
H    -0.164974   -1.989977    0.973888   -0.358805    0.263446   -0.094247
H    -1.991984    1.201076   -0.169399   -0.746669   -0.964119    0.036352
H     2.353344    1.043034   -0.035505    0.129667    0.025092   -0.023354
H    -0.120089   -2.129238   -0.640121   -0.347536    0.295476    0.014311
13
* Frequency(17)  815.6668
C     1.419984    0.490235   -0.008276    0.219520   -0.184283    0.031445
C     1.414171   -0.853117    0.104857    0.518419   -0.274019    0.042128
N    -0.053989   -1.390927    0.112001   -0.210950    0.335359   -0.031753
C    -1.281979   -0.691200    0.015587    0.225964   -0.374652    0.034622
N    -1.130129    0.656070   -0.092631   -0.229907   -0.249272    0.022179
C     0.122055    1.456723   -0.132718   -0.235092    0.269087   -0.049006
O    -2.378200   -1.197220    0.028360   -0.157963    0.104806   -0.012507
O     0.218885    2.659984   -0.227689    0.079282    0.326963   -0.020580
H     2.159852   -1.675357    0.180422    0.013993   -0.950324    0.019864
H    -0.201332   -1.963283    0.964337   -0.358805    0.263446   -0.094247
H    -2.067644    1.103383   -0.165715   -0.746669   -0.964119    0.036352
H     2.366483    1.045577   -0.037872    0.129667    0.025092   -0.023354
H    -0.155305   -2.099297   -0.638671   -0.347536    0.295476    0.014311
13
* Frequency(17)  815.6668
C     1.437114    0.475855   -0.005822    0.219520   -0.184283    0.031445
C     1.454625   -0.874499    0.108144    0.518419   -0.274019    0.042128
N    -0.070450   -1.364757    0.109523   -0.210950    0.335359   -0.031753
C    -1.264346   -0.720435    0.018289    0.225964   -0.374652    0.034622
N    -1.148070    0.636618   -0.090900   -0.229907   -0.249272    0.022179
C     0.103709    1.477720   -0.136542   -0.235092    0.269087   -0.049006
O    -2.390526   -1.189042    0.027384   -0.157963    0.104806   -0.012507
O     0.225071    2.685498   -0.229295    0.079282    0.326963   -0.020580
H     2.160944   -1.749515    0.181972    0.013993   -0.950324    0.019864
H    -0.229330   -1.942725    0.956983   -0.358805    0.263446   -0.094247
H    -2.125909    1.028149   -0.162878   -0.746669   -0.964119    0.036352
H     2.376601    1.047535   -0.039694    0.129667    0.025092   -0.023354
H    -0.182424   -2.076240   -0.637554   -0.347536    0.295476    0.014311
13
* Frequency(17)  815.6668
C     1.447274    0.467326   -0.004367    0.219520   -0.184283    0.031445
C     1.478618   -0.887181    0.110094    0.518419   -0.274019    0.042128
N    -0.080213   -1.349236    0.108054   -0.210950    0.335359   -0.031753
C    -1.253888   -0.737775    0.019891    0.225964   -0.374652    0.034622
N    -1.158710    0.625081   -0.089874   -0.229907   -0.249272    0.022179
C     0.092829    1.490174   -0.138810   -0.235092    0.269087   -0.049006
O    -2.397837   -1.184191    0.026805   -0.157963    0.104806   -0.012507
O     0.228741    2.700630   -0.230247    0.079282    0.326963   -0.020580
H     2.161591   -1.793497    0.182891    0.013993   -0.950324    0.019864
H    -0.245937   -1.930532    0.952621   -0.358805    0.263446   -0.094247
H    -2.160466    0.983528   -0.161196   -0.746669   -0.964119    0.036352
H     2.382602    1.048696   -0.040775    0.129667    0.025092   -0.023354
H    -0.198509   -2.062565   -0.636892   -0.347536    0.295476    0.014311
13
* Frequency(17)  815.6668
C     1.449362    0.465572   -0.004068    0.219520   -0.184283    0.031445
C     1.483551   -0.889788    0.110495    0.518419   -0.274019    0.042128
N    -0.082221   -1.346046    0.107752   -0.210950    0.335359   -0.031753
C    -1.251738   -0.741340    0.020221    0.225964   -0.374652    0.034622
N    -1.160898    0.622710   -0.089663   -0.229907   -0.249272    0.022179
C     0.090592    1.492735   -0.139276   -0.235092    0.269087   -0.049006
O    -2.399340   -1.183194    0.026686   -0.157963    0.104806   -0.012507
O     0.229495    2.703741   -0.230443    0.079282    0.326963   -0.020580
H     2.161725   -1.802539    0.183080    0.013993   -0.950324    0.019864
H    -0.249351   -1.928026    0.951724   -0.358805    0.263446   -0.094247
H    -2.167570    0.974354   -0.160850   -0.746669   -0.964119    0.036352
H     2.383836    1.048935   -0.040997    0.129667    0.025092   -0.023354
H    -0.201816   -2.059754   -0.636755   -0.347536    0.295476    0.014311
13
* Frequency(17)  815.6668
C     1.443153    0.470784   -0.004957    0.219520   -0.184283    0.031445
C     1.468888   -0.882038    0.109303    0.518419   -0.274019    0.042128
N    -0.076254   -1.355531    0.108650   -0.210950    0.335359   -0.031753
C    -1.258129   -0.730743    0.019242    0.225964   -0.374652    0.034622
N    -1.154395    0.629760   -0.090290   -0.229907   -0.249272    0.022179
C     0.097241    1.485124   -0.137890   -0.235092    0.269087   -0.049006
O    -2.394872   -1.186158    0.027040   -0.157963    0.104806   -0.012507
O     0.227253    2.694494   -0.229861    0.079282    0.326963   -0.020580
H     2.161329   -1.775660    0.182518    0.013993   -0.950324    0.019864
H    -0.239202   -1.935477    0.954390   -0.358805    0.263446   -0.094247
H    -2.146452    1.001623   -0.161878   -0.746669   -0.964119    0.036352
H     2.380169    1.048225   -0.040337    0.129667    0.025092   -0.023354
H    -0.191986   -2.068111   -0.637160   -0.347536    0.295476    0.014311
13
* Frequency(17)  815.6668
C     1.429320    0.482398   -0.006939    0.219520   -0.184283    0.031445
C     1.436218   -0.864770    0.106648    0.518419   -0.274019    0.042128
N    -0.062961   -1.376664    0.110651   -0.210950    0.335359   -0.031753
C    -1.272369   -0.707133    0.017060    0.225964   -0.374652    0.034622
N    -1.139907    0.645468   -0.091688   -0.229907   -0.249272    0.022179
C     0.112056    1.468167   -0.134802   -0.235092    0.269087   -0.049006
O    -2.384918   -1.192763    0.027828   -0.157963    0.104806   -0.012507
O     0.222257    2.673889   -0.228564    0.079282    0.326963   -0.020580
H     2.160447   -1.715773    0.181267    0.013993   -0.950324    0.019864
H    -0.216591   -1.952078    0.960329   -0.358805    0.263446   -0.094247
H    -2.099399    1.062380   -0.164169   -0.746669   -0.964119    0.036352
H     2.371997    1.046644   -0.038865    0.129667    0.025092   -0.023354
H    -0.170085   -2.086731   -0.638062   -0.347536    0.295476    0.014311
13
* Frequency(17)  815.6668
C     1.409361    0.499153   -0.009798    0.219520   -0.184283    0.031445
C     1.389083   -0.839856    0.102818    0.518419   -0.274019    0.042128
N    -0.043781   -1.407156    0.113538   -0.210950    0.335359   -0.031753
C    -1.292914   -0.673069    0.013912    0.225964   -0.374652    0.034622
N    -1.119003    0.668133   -0.093704   -0.229907   -0.249272    0.022179
C     0.133431    1.443701   -0.130346   -0.235092    0.269087   -0.049006
O    -2.370556   -1.202292    0.028965   -0.157963    0.104806   -0.012507
O     0.215048    2.644161   -0.226693    0.079282    0.326963   -0.020580
H     2.159175   -1.629368    0.179461    0.013993   -0.950324    0.019864
H    -0.183968   -1.976031    0.968898   -0.358805    0.263446   -0.094247
H    -2.031510    1.150039   -0.167474   -0.746669   -0.964119    0.036352
H     2.360208    1.044363   -0.036742    0.129667    0.025092   -0.023354
H    -0.138487   -2.113596   -0.639363   -0.347536    0.295476    0.014311
13
* Frequency(17)  815.6668
C     1.385439    0.519235   -0.013225    0.219520   -0.184283    0.031445
C     1.332589   -0.809995    0.098227    0.518419   -0.274019    0.042128
N    -0.020793   -1.443701    0.116998   -0.210950    0.335359   -0.031753
C    -1.317538   -0.632242    0.010139    0.225964   -0.374652    0.034622
N    -1.093949    0.695297   -0.096121   -0.229907   -0.249272    0.022179
C     0.159050    1.414377   -0.125006   -0.235092    0.269087   -0.049006
O    -2.353342   -1.213713    0.030328   -0.157963    0.104806   -0.012507
O     0.206408    2.608531   -0.224450    0.079282    0.326963   -0.020580
H     2.157650   -1.525808    0.177296    0.013993   -0.950324    0.019864
H    -0.144868   -2.004740    0.979169   -0.358805    0.263446   -0.094247
H    -1.950143    1.255103   -0.171436   -0.746669   -0.964119    0.036352
H     2.346077    1.041628   -0.034197    0.129667    0.025092   -0.023354
H    -0.100614   -2.145795   -0.640923   -0.347536    0.295476    0.014311
13
* Frequency(17)  815.6668
C     1.360147    0.540467   -0.016848    0.219520   -0.184283    0.031445
C     1.272859   -0.778424    0.093373    0.518419   -0.274019    0.042128
N     0.003512   -1.482340    0.120656   -0.210950    0.335359   -0.031753
C    -1.343573   -0.589076    0.006150    0.225964   -0.374652    0.034622
N    -1.067460    0.724017   -0.098676   -0.229907   -0.249272    0.022179
C     0.186137    1.383374   -0.119360   -0.235092    0.269087   -0.049006
O    -2.335142   -1.225789    0.031769   -0.157963    0.104806   -0.012507
O     0.197274    2.570860   -0.222079    0.079282    0.326963   -0.020580
H     2.156037   -1.416315    0.175008    0.013993   -0.950324    0.019864
H    -0.103527   -2.035093    0.990028   -0.358805    0.263446   -0.094247
H    -1.864115    1.366185   -0.175624   -0.746669   -0.964119    0.036352
H     2.331138    1.038737   -0.031506    0.129667    0.025092   -0.023354
H    -0.060573   -2.179839   -0.642572   -0.347536    0.295476    0.014311
13
* Frequency(17)  815.6668
C     1.336225    0.560549   -0.020274    0.219520   -0.184283    0.031445
C     1.216365   -0.748563    0.088783    0.518419   -0.274019    0.042128
N     0.026500   -1.518885    0.124117   -0.210950    0.335359   -0.031753
C    -1.368197   -0.548249    0.002377    0.225964   -0.374652    0.034622
N    -1.042407    0.751181   -0.101093   -0.229907   -0.249272    0.022179
C     0.211755    1.354051   -0.114019   -0.235092    0.269087   -0.049006
O    -2.317928   -1.237210    0.033132   -0.157963    0.104806   -0.012507
O     0.188634    2.535229   -0.219836    0.079282    0.326963   -0.020580
H     2.154513   -1.312755    0.172843    0.013993   -0.950324    0.019864
H    -0.064427   -2.063802    1.000298   -0.358805    0.263446   -0.094247
H    -1.782748    1.471248   -0.179585   -0.746669   -0.964119    0.036352
H     2.317007    1.036003   -0.028961    0.129667    0.025092   -0.023354
H    -0.022701   -2.212038   -0.644131   -0.347536    0.295476    0.014311
13
* Frequency(17)  815.6668
C     1.316266    0.577305   -0.023133    0.219520   -0.184283    0.031445
C     1.169229   -0.723649    0.084952    0.518419   -0.274019    0.042128
N     0.045680   -1.549376    0.127004   -0.210950    0.335359   -0.031753
C    -1.388742   -0.514185   -0.000771    0.225964   -0.374652    0.034622
N    -1.021503    0.773845   -0.103110   -0.229907   -0.249272    0.022179
C     0.233130    1.329585   -0.109563   -0.235092    0.269087   -0.049006
O    -2.303566   -1.246739    0.034269   -0.157963    0.104806   -0.012507
O     0.181426    2.505501   -0.217965    0.079282    0.326963   -0.020580
H     2.153240   -1.226350    0.171037    0.013993   -0.950324    0.019864
H    -0.031804   -2.087755    1.008867   -0.358805    0.263446   -0.094247
H    -1.714859    1.558908   -0.182891   -0.746669   -0.964119    0.036352
H     2.305218    1.033721   -0.026838    0.129667    0.025092   -0.023354
H     0.008898   -2.238903   -0.645432   -0.347536    0.295476    0.014311
13
* Frequency(17)  815.6668
C     1.302432    0.588918   -0.025115    0.219520   -0.184283    0.031445
C     1.136560   -0.706381    0.082297    0.518419   -0.274019    0.042128
N     0.058974   -1.570510    0.129005   -0.210950    0.335359   -0.031753
C    -1.402981   -0.490575   -0.002953    0.225964   -0.374652    0.034622
N    -1.007015    0.789554   -0.104507   -0.229907   -0.249272    0.022179
C     0.247945    1.312628   -0.106475   -0.235092    0.269087   -0.049006
O    -2.293611   -1.253343    0.035057   -0.157963    0.104806   -0.012507
O     0.176430    2.484897   -0.216668    0.079282    0.326963   -0.020580
H     2.152358   -1.166463    0.169785    0.013993   -0.950324    0.019864
H    -0.009193   -2.104357    1.014806   -0.358805    0.263446   -0.094247
H    -1.667806    1.619664   -0.185181   -0.746669   -0.964119    0.036352
H     2.297046    1.032140   -0.025366    0.129667    0.025092   -0.023354
H     0.030799   -2.257523   -0.646334   -0.347536    0.295476    0.014311
13
* Frequency(17)  815.6668
C     1.296223    0.594130   -0.026004    0.219520   -0.184283    0.031445
C     1.121897   -0.698631    0.081106    0.518419   -0.274019    0.042128
N     0.064940   -1.579995    0.129903   -0.210950    0.335359   -0.031753
C    -1.409373   -0.479979   -0.003932    0.225964   -0.374652    0.034622
N    -1.000512    0.796604   -0.105135   -0.229907   -0.249272    0.022179
C     0.254595    1.305017   -0.105089   -0.235092    0.269087   -0.049006
O    -2.289144   -1.256308    0.035411   -0.157963    0.104806   -0.012507
O     0.174187    2.475649   -0.216086    0.079282    0.326963   -0.020580
H     2.151963   -1.139584    0.169223    0.013993   -0.950324    0.019864
H     0.000955   -2.111808    1.017472   -0.358805    0.263446   -0.094247
H    -1.646687    1.646933   -0.186210   -0.746669   -0.964119    0.036352
H     2.293379    1.031430   -0.024706    0.129667    0.025092   -0.023354
H     0.040628   -2.265880   -0.646739   -0.347536    0.295476    0.014311
13
* Frequency(17)  815.6668
C     1.298312    0.592377   -0.025705    0.219520   -0.184283    0.031445
C     1.126830   -0.701238    0.081507    0.518419   -0.274019    0.042128
N     0.062933   -1.576804    0.129601   -0.210950    0.335359   -0.031753
C    -1.407223   -0.483543   -0.003603    0.225964   -0.374652    0.034622
N    -1.002700    0.794233   -0.104924   -0.229907   -0.249272    0.022179
C     0.252358    1.307577   -0.105555   -0.235092    0.269087   -0.049006
O    -2.290647   -1.255310    0.035292   -0.157963    0.104806   -0.012507
O     0.174942    2.478760   -0.216282    0.079282    0.326963   -0.020580
H     2.152096   -1.148626    0.169412    0.013993   -0.950324    0.019864
H    -0.002458   -2.109301    1.016575   -0.358805    0.263446   -0.094247
H    -1.653791    1.637760   -0.185864   -0.746669   -0.964119    0.036352
H     2.294613    1.031669   -0.024928    0.129667    0.025092   -0.023354
H     0.037322   -2.263069   -0.646603   -0.347536    0.295476    0.014311
13
* Frequency(17)  815.6668
C     1.308472    0.583848   -0.024250    0.219520   -0.184283    0.031445
C     1.150823   -0.713920    0.083457    0.518419   -0.274019    0.042128
N     0.053170   -1.561283    0.128131   -0.210950    0.335359   -0.031753
C    -1.396765   -0.500883   -0.002000    0.225964   -0.374652    0.034622
N    -1.013340    0.782696   -0.103897   -0.229907   -0.249272    0.022179
C     0.241477    1.320031   -0.107824   -0.235092    0.269087   -0.049006
O    -2.297957   -1.250460    0.034713   -0.157963    0.104806   -0.012507
O     0.178611    2.493893   -0.217234    0.079282    0.326963   -0.020580
H     2.152743   -1.192609    0.170332    0.013993   -0.950324    0.019864
H    -0.019065   -2.097109    1.012213   -0.358805    0.263446   -0.094247
H    -1.688349    1.593139   -0.184181   -0.746669   -0.964119    0.036352
H     2.300614    1.032830   -0.026009    0.129667    0.025092   -0.023354
H     0.021237   -2.249394   -0.645941   -0.347536    0.295476    0.014311
13
* Frequency(17)  815.6668
C     1.325602    0.569467   -0.021796    0.219520   -0.184283    0.031445
C     1.191277   -0.735303    0.086744    0.518419   -0.274019    0.042128
N     0.036709   -1.535114    0.125653   -0.210950    0.335359   -0.031753
C    -1.379132   -0.530119    0.000702    0.225964   -0.374652    0.034622
N    -1.031281    0.763244   -0.102167   -0.229907   -0.249272    0.022179
C     0.223132    1.341029   -0.111648   -0.235092    0.269087   -0.049006
O    -2.310284   -1.242281    0.033737   -0.157963    0.104806   -0.012507
O     0.184798    2.519407   -0.218840    0.079282    0.326963   -0.020580
H     2.153835   -1.266766    0.171882    0.013993   -0.950324    0.019864
H    -0.047064   -2.076551    1.004859   -0.358805    0.263446   -0.094247
H    -1.746614    1.517905   -0.181345   -0.746669   -0.964119    0.036352
H     2.310732    1.034789   -0.027831    0.129667    0.025092   -0.023354
H    -0.005882   -2.226337   -0.644824   -0.347536    0.295476    0.014311
13
* Frequency(17)  815.6668
C     1.347845    0.550794   -0.018610    0.219520   -0.184283    0.031445
C     1.243808   -0.763069    0.091013    0.518419   -0.274019    0.042128
N     0.015333   -1.501132    0.122436   -0.210950    0.335359   -0.031753
C    -1.356235   -0.568082    0.004210    0.225964   -0.374652    0.034622
N    -1.054577    0.737985   -0.099919   -0.229907   -0.249272    0.022179
C     0.199310    1.368295   -0.116613   -0.235092    0.269087   -0.049006
O    -2.326290   -1.231662    0.032470   -0.157963    0.104806   -0.012507
O     0.192831    2.552538   -0.220926    0.079282    0.326963   -0.020580
H     2.155253   -1.363062    0.173894    0.013993   -0.950324    0.019864
H    -0.083421   -2.049856    0.995309   -0.358805    0.263446   -0.094247
H    -1.822274    1.420211   -0.177661   -0.746669   -0.964119    0.036352
H     2.323871    1.037331   -0.030197    0.129667    0.025092   -0.023354
H    -0.041098   -2.196396   -0.643374   -0.347536    0.295476    0.014311
13
* Frequency(17)  815.6668
C     1.372793    0.529851   -0.015036    0.219520   -0.184283    0.031445
C     1.302724   -0.794210    0.095800    0.518419   -0.274019    0.042128
N    -0.008640   -1.463020    0.118827   -0.210950    0.335359   -0.031753
C    -1.330555   -0.610659    0.008144    0.225964   -0.374652    0.034622
N    -1.080705    0.709657   -0.097399   -0.229907   -0.249272    0.022179
C     0.172593    1.398876   -0.122183   -0.235092    0.269087   -0.049006
O    -2.344242   -1.219751    0.031049   -0.157963    0.104806   -0.012507
O     0.201841    2.589695   -0.223265    0.079282    0.326963   -0.020580
H     2.156844   -1.471062    0.176152    0.013993   -0.950324    0.019864
H    -0.124198   -2.019917    0.984598   -0.358805    0.263446   -0.094247
H    -1.907129    1.310644   -0.173530   -0.746669   -0.964119    0.036352
H     2.338608    1.040183   -0.032851    0.129667    0.025092   -0.023354
H    -0.080594   -2.162817   -0.641747   -0.347536    0.295476    0.014311
