13
* (null), Energy   -1000.0000000
C     1.628522    0.403282    0.009825   -0.001416    0.003856    0.056690
C     1.558257   -0.920826    0.121541    0.000066   -0.001788   -0.009530
N     0.246846   -1.589915    0.143551    0.002046   -0.007812   -0.105517
C    -1.074947   -0.737408    0.033678    0.013541   -0.038741   -0.459566
N    -0.825093    0.582903   -0.073451   -0.003788    0.012128    0.129483
C     0.428005    1.271956   -0.097784    0.004290   -0.014221   -0.160749
O    -2.088804   -1.345922    0.058464   -0.003161    0.014981    0.177207
O     0.457572    2.462843   -0.197982   -0.002139    0.002588    0.037181
H     2.412149   -1.597989    0.202997   -0.014633    0.041592    0.505300
H     0.131582   -2.147641    1.008616   -0.219802    0.918136    0.466392
H    -1.651708    1.183769   -0.147738   -0.026397    0.085238    0.971979
H     2.594425    0.913409   -0.007422   -0.014044    0.043463    0.521297
H     0.175864   -2.288698   -0.617572    0.186811   -0.820804    0.628754
13
* Frequency(13)  557.0593
C     1.628361    0.403720    0.016268   -0.001416    0.003856    0.056690
C     1.558265   -0.921029    0.120458    0.000066   -0.001788   -0.009530
N     0.247078   -1.590802    0.131560    0.002046   -0.007812   -0.105517
C    -1.073409   -0.741811   -0.018549    0.013541   -0.038741   -0.459566
N    -0.825523    0.584282   -0.058736   -0.003788    0.012128    0.129483
C     0.428492    1.270340   -0.116052    0.004290   -0.014221   -0.160749
O    -2.089163   -1.344219    0.078603   -0.003161    0.014981    0.177207
O     0.457329    2.463137   -0.193757   -0.002139    0.002588    0.037181
H     2.410486   -1.593262    0.260421   -0.014633    0.041592    0.505300
H     0.106603   -2.043300    1.061619   -0.219802    0.918136    0.466392
H    -1.654708    1.193456   -0.037278   -0.026397    0.085238    0.971979
H     2.592829    0.918349    0.051821   -0.014044    0.043463    0.521297
H     0.197094   -2.381979   -0.546117    0.186811   -0.820804    0.628754
13
* Frequency(13)  557.0593
C     1.628218    0.404110    0.022012   -0.001416    0.003856    0.056690
C     1.558271   -0.921210    0.119493    0.000066   -0.001788   -0.009530
N     0.247286   -1.591594    0.120868    0.002046   -0.007812   -0.105517
C    -1.072037   -0.745736   -0.065117    0.013541   -0.038741   -0.459566
N    -0.825907    0.585511   -0.045616   -0.003788    0.012128    0.129483
C     0.428927    1.268899   -0.132341    0.004290   -0.014221   -0.160749
O    -2.089484   -1.342701    0.096559   -0.003161    0.014981    0.177207
O     0.457112    2.463399   -0.189989   -0.002139    0.002588    0.037181
H     2.409003   -1.589048    0.311623   -0.014633    0.041592    0.505300
H     0.084330   -1.950266    1.108878   -0.219802    0.918136    0.466392
H    -1.657383    1.202093    0.061212   -0.026397    0.085238    0.971979
H     2.591406    0.922753    0.104644   -0.014044    0.043463    0.521297
H     0.216024   -2.465150   -0.482406    0.186811   -0.820804    0.628754
13
* Frequency(13)  557.0593
C     1.628107    0.404411    0.026436   -0.001416    0.003856    0.056690
C     1.558276   -0.921350    0.118749    0.000066   -0.001788   -0.009530
N     0.247445   -1.592204    0.112634    0.002046   -0.007812   -0.105517
C    -1.070980   -0.748759   -0.100979    0.013541   -0.038741   -0.459566
N    -0.826203    0.586457   -0.035512   -0.003788    0.012128    0.129483
C     0.429262    1.267789   -0.144885    0.004290   -0.014221   -0.160749
O    -2.089730   -1.341532    0.110387   -0.003161    0.014981    0.177207
O     0.456945    2.463601   -0.187088   -0.002139    0.002588    0.037181
H     2.407861   -1.585802    0.351054   -0.014633    0.041592    0.505300
H     0.067178   -1.878620    1.145272   -0.219802    0.918136    0.466392
H    -1.659443    1.208745    0.137060   -0.026397    0.085238    0.971979
H     2.590310    0.926144    0.145322   -0.014044    0.043463    0.521297
H     0.230601   -2.529201   -0.433342    0.186811   -0.820804    0.628754
13
* Frequency(13)  557.0593
C     1.628042    0.404590    0.029060   -0.001416    0.003856    0.056690
C     1.558279   -0.921432    0.118308    0.000066   -0.001788   -0.009530
N     0.247540   -1.592565    0.107750    0.002046   -0.007812   -0.105517
C    -1.070353   -0.750552   -0.122248    0.013541   -0.038741   -0.459566
N    -0.826378    0.587018   -0.029519   -0.003788    0.012128    0.129483
C     0.429461    1.267131   -0.152325    0.004290   -0.014221   -0.160749
O    -2.089877   -1.340839    0.118589   -0.003161    0.014981    0.177207
O     0.456846    2.463721   -0.185367   -0.002139    0.002588    0.037181
H     2.407184   -1.583877    0.374440   -0.014633    0.041592    0.505300
H     0.057005   -1.836127    1.166858   -0.219802    0.918136    0.466392
H    -1.660664    1.212690    0.182045   -0.026397    0.085238    0.971979
H     2.589660    0.928156    0.169449   -0.014044    0.043463    0.521297
H     0.239247   -2.567189   -0.404242    0.186811   -0.820804    0.628754
13
* Frequency(13)  557.0593
C     1.628028    0.404626    0.029599   -0.001416    0.003856    0.056690
C     1.558280   -0.921449    0.118217    0.000066   -0.001788   -0.009530
N     0.247559   -1.592639    0.106746    0.002046   -0.007812   -0.105517
C    -1.070224   -0.750921   -0.126621    0.013541   -0.038741   -0.459566
N    -0.826414    0.587134   -0.028287   -0.003788    0.012128    0.129483
C     0.429501    1.266995   -0.153854    0.004290   -0.014221   -0.160749
O    -2.089907   -1.340696    0.120275   -0.003161    0.014981    0.177207
O     0.456826    2.463745   -0.185013   -0.002139    0.002588    0.037181
H     2.407044   -1.583481    0.379248   -0.014633    0.041592    0.505300
H     0.054914   -1.827391    1.171295   -0.219802    0.918136    0.466392
H    -1.660915    1.213501    0.191293   -0.026397    0.085238    0.971979
H     2.589526    0.928569    0.174409   -0.014044    0.043463    0.521297
H     0.241025   -2.574999   -0.398260    0.186811   -0.820804    0.628754
13
* Frequency(13)  557.0593
C     1.628068    0.404517    0.027996   -0.001416    0.003856    0.056690
C     1.558278   -0.921399    0.118487    0.000066   -0.001788   -0.009530
N     0.247502   -1.592419    0.109731    0.002046   -0.007812   -0.105517
C    -1.070607   -0.749825   -0.113622    0.013541   -0.038741   -0.459566
N    -0.826307    0.586791   -0.031949   -0.003788    0.012128    0.129483
C     0.429380    1.267398   -0.149307    0.004290   -0.014221   -0.160749
O    -2.089817   -1.341120    0.115263   -0.003161    0.014981    0.177207
O     0.456887    2.463672   -0.186065   -0.002139    0.002588    0.037181
H     2.407458   -1.584658    0.364956   -0.014633    0.041592    0.505300
H     0.061131   -1.853360    1.158104   -0.219802    0.918136    0.466392
H    -1.660169    1.211090    0.163801   -0.026397    0.085238    0.971979
H     2.589923    0.927340    0.159664   -0.014044    0.043463    0.521297
H     0.235741   -2.551783   -0.416043    0.186811   -0.820804    0.628754
13
* Frequency(13)  557.0593
C     1.628158    0.404274    0.024423   -0.001416    0.003856    0.056690
C     1.558274   -0.921286    0.119087    0.000066   -0.001788   -0.009530
N     0.247373   -1.591926    0.116380    0.002046   -0.007812   -0.105517
C    -1.071461   -0.747384   -0.084662    0.013541   -0.038741   -0.459566
N    -0.826068    0.586026   -0.040109   -0.003788    0.012128    0.129483
C     0.429110    1.268294   -0.139177    0.004290   -0.014221   -0.160749
O    -2.089618   -1.342064    0.104096   -0.003161    0.014981    0.177207
O     0.457021    2.463509   -0.188408   -0.002139    0.002588    0.037181
H     2.408381   -1.587279    0.333113   -0.014633    0.041592    0.505300
H     0.074982   -1.911218    1.128713   -0.219802    0.918136    0.466392
H    -1.658505    1.205719    0.102550   -0.026397    0.085238    0.971979
H     2.590808    0.924601    0.126814   -0.014044    0.043463    0.521297
H     0.223969   -2.500058   -0.455666    0.186811   -0.820804    0.628754
13
* Frequency(13)  557.0593
C     1.628286    0.403924    0.019269   -0.001416    0.003856    0.056690
C     1.558268   -0.921124    0.119954    0.000066   -0.001788   -0.009530
N     0.247187   -1.591216    0.125974    0.002046   -0.007812   -0.105517
C    -1.072692   -0.743861   -0.042877    0.013541   -0.038741   -0.459566
N    -0.825724    0.584924   -0.051882   -0.003788    0.012128    0.129483
C     0.428720    1.269587   -0.124562    0.004290   -0.014221   -0.160749
O    -2.089331   -1.343426    0.087984   -0.003161    0.014981    0.177207
O     0.457216    2.463274   -0.191788   -0.002139    0.002588    0.037181
H     2.409711   -1.591060    0.287170   -0.014633    0.041592    0.505300
H     0.094967   -1.994697    1.086308   -0.219802    0.918136    0.466392
H    -1.656105    1.197969    0.014176   -0.026397    0.085238    0.971979
H     2.592085    0.920649    0.079416   -0.014044    0.043463    0.521297
H     0.206983   -2.425429   -0.512833    0.186811   -0.820804    0.628754
13
* Frequency(13)  557.0593
C     1.628441    0.403504    0.013091   -0.001416    0.003856    0.056690
C     1.558261   -0.920929    0.120992    0.000066   -0.001788   -0.009530
N     0.246963   -1.590365    0.137472    0.002046   -0.007812   -0.105517
C    -1.074167   -0.739640    0.007203    0.013541   -0.038741   -0.459566
N    -0.825311    0.583602   -0.065992   -0.003788    0.012128    0.129483
C     0.428252    1.271137   -0.107045    0.004290   -0.014221   -0.160749
O    -2.088986   -1.345059    0.068673   -0.003161    0.014981    0.177207
O     0.457449    2.462992   -0.195840   -0.002139    0.002588    0.037181
H     2.411306   -1.595593    0.232106   -0.014633    0.041592    0.505300
H     0.118920   -2.094749    1.035484   -0.219802    0.918136    0.466392
H    -1.653229    1.188680   -0.091744   -0.026397    0.085238    0.971979
H     2.593616    0.915913    0.022609   -0.014044    0.043463    0.521297
H     0.186626   -2.335983   -0.581351    0.186811   -0.820804    0.628754
13
* Frequency(13)  557.0593
C     1.628604    0.403059    0.006560   -0.001416    0.003856    0.056690
C     1.558253   -0.920723    0.122090    0.000066   -0.001788   -0.009530
N     0.246728   -1.589464    0.149630    0.002046   -0.007812   -0.105517
C    -1.075727   -0.735176    0.060153    0.013541   -0.038741   -0.459566
N    -0.824875    0.582205   -0.080910   -0.003788    0.012128    0.129483
C     0.427758    1.272775   -0.088524    0.004290   -0.014221   -0.160749
O    -2.088622   -1.346785    0.048256   -0.003161    0.014981    0.177207
O     0.457695    2.462694   -0.200124   -0.002139    0.002588    0.037181
H     2.412992   -1.600385    0.173887   -0.014633    0.041592    0.505300
H     0.144245   -2.200533    0.981748   -0.219802    0.918136    0.466392
H    -1.650187    1.178859   -0.203732   -0.026397    0.085238    0.971979
H     2.595234    0.910905   -0.037453   -0.014044    0.043463    0.521297
H     0.165102   -2.241413   -0.653794    0.186811   -0.820804    0.628754
13
* Frequency(13)  557.0593
C     1.628758    0.402639    0.000382   -0.001416    0.003856    0.056690
C     1.558246   -0.920528    0.123129    0.000066   -0.001788   -0.009530
N     0.246505   -1.588613    0.161128    0.002046   -0.007812   -0.105517
C    -1.077203   -0.730954    0.110233    0.013541   -0.038741   -0.459566
N    -0.824462    0.580883   -0.095020   -0.003788    0.012128    0.129483
C     0.427290    1.274325   -0.071006    0.004290   -0.014221   -0.160749
O    -2.088278   -1.348417    0.028945   -0.003161    0.014981    0.177207
O     0.457928    2.462412   -0.204176   -0.002139    0.002588    0.037181
H     2.414586   -1.604917    0.118823   -0.014633    0.041592    0.505300
H     0.168197   -2.300586    0.930923   -0.219802    0.918136    0.466392
H    -1.647311    1.169570   -0.309652   -0.026397    0.085238    0.971979
H     2.596764    0.906169   -0.094261   -0.014044    0.043463    0.521297
H     0.144745   -2.151967   -0.722311    0.186811   -0.820804    0.628754
13
* Frequency(13)  557.0593
C     1.628887    0.402289   -0.004772   -0.001416    0.003856    0.056690
C     1.558240   -0.920365    0.123995    0.000066   -0.001788   -0.009530
N     0.246319   -1.587903    0.170722    0.002046   -0.007812   -0.105517
C    -1.078434   -0.727432    0.152018    0.013541   -0.038741   -0.459566
N    -0.824117    0.579780   -0.106793   -0.003788    0.012128    0.129483
C     0.426900    1.275618   -0.056391    0.004290   -0.014221   -0.160749
O    -2.087990   -1.349779    0.012833   -0.003161    0.014981    0.177207
O     0.458123    2.462176   -0.207557   -0.002139    0.002588    0.037181
H     2.415917   -1.608699    0.072880   -0.014633    0.041592    0.505300
H     0.188182   -2.384064    0.888518   -0.219802    0.918136    0.466392
H    -1.644911    1.161820   -0.398026   -0.026397    0.085238    0.971979
H     2.598041    0.902217   -0.141658   -0.014044    0.043463    0.521297
H     0.127760   -2.077338   -0.779479    0.186811   -0.820804    0.628754
13
* Frequency(13)  557.0593
C     1.628976    0.402046   -0.008345   -0.001416    0.003856    0.056690
C     1.558236   -0.920253    0.124596    0.000066   -0.001788   -0.009530
N     0.246190   -1.587411    0.177371    0.002046   -0.007812   -0.105517
C    -1.079288   -0.724991    0.180978    0.013541   -0.038741   -0.459566
N    -0.823879    0.579016   -0.114953   -0.003788    0.012128    0.129483
C     0.426630    1.276514   -0.046261    0.004290   -0.014221   -0.160749
O    -2.087791   -1.350723    0.001666   -0.003161    0.014981    0.177207
O     0.458258    2.462013   -0.209900   -0.002139    0.002588    0.037181
H     2.416839   -1.611320    0.041037   -0.014633    0.041592    0.505300
H     0.202034   -2.441923    0.859127   -0.219802    0.918136    0.466392
H    -1.643247    1.156449   -0.459277   -0.026397    0.085238    0.971979
H     2.598926    0.899478   -0.174508   -0.014044    0.043463    0.521297
H     0.115987   -2.025614   -0.819101    0.186811   -0.820804    0.628754
13
* Frequency(13)  557.0593
C     1.629016    0.401937   -0.009948   -0.001416    0.003856    0.056690
C     1.558234   -0.920202    0.124866    0.000066   -0.001788   -0.009530
N     0.246132   -1.587190    0.180356    0.002046   -0.007812   -0.105517
C    -1.079670   -0.723895    0.193976    0.013541   -0.038741   -0.459566
N    -0.823772    0.578673   -0.118615   -0.003788    0.012128    0.129483
C     0.426508    1.276916   -0.041714    0.004290   -0.014221   -0.160749
O    -2.087702   -1.351147   -0.003346   -0.003161    0.014981    0.177207
O     0.458318    2.461940   -0.210951   -0.002139    0.002588    0.037181
H     2.417253   -1.612496    0.026746   -0.014633    0.041592    0.505300
H     0.208250   -2.467891    0.845936   -0.219802    0.918136    0.466392
H    -1.642501    1.154038   -0.486769   -0.026397    0.085238    0.971979
H     2.599324    0.898249   -0.189253   -0.014044    0.043463    0.521297
H     0.110704   -2.002398   -0.836885    0.186811   -0.820804    0.628754
13
* Frequency(13)  557.0593
C     1.629003    0.401973   -0.009409   -0.001416    0.003856    0.056690
C     1.558235   -0.920219    0.124775    0.000066   -0.001788   -0.009530
N     0.246151   -1.587264    0.179352    0.002046   -0.007812   -0.105517
C    -1.079542   -0.724264    0.189604    0.013541   -0.038741   -0.459566
N    -0.823808    0.578788   -0.117383   -0.003788    0.012128    0.129483
C     0.426549    1.276781   -0.043244    0.004290   -0.014221   -0.160749
O    -2.087732   -1.351004   -0.001660   -0.003161    0.014981    0.177207
O     0.458298    2.461965   -0.210597   -0.002139    0.002588    0.037181
H     2.417113   -1.612100    0.031553   -0.014633    0.041592    0.505300
H     0.206159   -2.459156    0.850373   -0.219802    0.918136    0.466392
H    -1.642752    1.154849   -0.477521   -0.026397    0.085238    0.971979
H     2.599190    0.898662   -0.184293   -0.014044    0.043463    0.521297
H     0.112481   -2.010208   -0.830902    0.186811   -0.820804    0.628754
13
* Frequency(13)  557.0593
C     1.628937    0.402152   -0.006785   -0.001416    0.003856    0.056690
C     1.558238   -0.920302    0.124334    0.000066   -0.001788   -0.009530
N     0.246246   -1.587625    0.174468    0.002046   -0.007812   -0.105517
C    -1.078915   -0.726057    0.168334    0.013541   -0.038741   -0.459566
N    -0.823983    0.579350   -0.111391   -0.003788    0.012128    0.129483
C     0.426748    1.276123   -0.050683    0.004290   -0.014221   -0.160749
O    -2.087878   -1.350311    0.006541   -0.003161    0.014981    0.177207
O     0.458199    2.462084   -0.208877   -0.002139    0.002588    0.037181
H     2.416436   -1.610175    0.054939   -0.014633    0.041592    0.505300
H     0.195986   -2.416663    0.871959   -0.219802    0.918136    0.466392
H    -1.643973    1.158794   -0.432536   -0.026397    0.085238    0.971979
H     2.598540    0.900674   -0.160166   -0.014044    0.043463    0.521297
H     0.121127   -2.048196   -0.801802    0.186811   -0.820804    0.628754
13
* Frequency(13)  557.0593
C     1.628827    0.402453   -0.002362   -0.001416    0.003856    0.056690
C     1.558243   -0.920441    0.123590    0.000066   -0.001788   -0.009530
N     0.246406   -1.588235    0.166234    0.002046   -0.007812   -0.105517
C    -1.077858   -0.729080    0.132473    0.013541   -0.038741   -0.459566
N    -0.824279    0.580296   -0.101286   -0.003788    0.012128    0.129483
C     0.427083    1.275013   -0.063227    0.004290   -0.014221   -0.160749
O    -2.088125   -1.349142    0.020369   -0.003161    0.014981    0.177207
O     0.458032    2.462286   -0.205975   -0.002139    0.002588    0.037181
H     2.415294   -1.606930    0.094370   -0.014633    0.041592    0.505300
H     0.178834   -2.345017    0.908353   -0.219802    0.918136    0.466392
H    -1.646033    1.165445   -0.356689   -0.026397    0.085238    0.971979
H     2.597444    0.904066   -0.119488   -0.014044    0.043463    0.521297
H     0.135704   -2.112246   -0.752738    0.186811   -0.820804    0.628754
13
* Frequency(13)  557.0593
C     1.628683    0.402843    0.003383   -0.001416    0.003856    0.056690
C     1.558250   -0.920623    0.122624    0.000066   -0.001788   -0.009530
N     0.246613   -1.589027    0.155542    0.002046   -0.007812   -0.105517
C    -1.076486   -0.733005    0.085905    0.013541   -0.038741   -0.459566
N    -0.824662    0.581525   -0.088166   -0.003788    0.012128    0.129483
C     0.427517    1.273572   -0.079516    0.004290   -0.014221   -0.160749
O    -2.088445   -1.347624    0.038326   -0.003161    0.014981    0.177207
O     0.457815    2.462549   -0.202208   -0.002139    0.002588    0.037181
H     2.413812   -1.602715    0.145572   -0.014633    0.041592    0.505300
H     0.156562   -2.251983    0.955613   -0.219802    0.918136    0.466392
H    -1.648708    1.174083   -0.258198   -0.026397    0.085238    0.971979
H     2.596021    0.908470   -0.066665   -0.014044    0.043463    0.521297
H     0.154634   -2.195418   -0.689027    0.186811   -0.820804    0.628754
13
* Frequency(13)  557.0593
C     1.628522    0.403282    0.009825   -0.001416    0.003856    0.056690
C     1.558257   -0.920826    0.121541    0.000066   -0.001788   -0.009530
N     0.246846   -1.589915    0.143551    0.002046   -0.007812   -0.105517
C    -1.074947   -0.737408    0.033678    0.013541   -0.038741   -0.459566
N    -0.825093    0.582903   -0.073451   -0.003788    0.012128    0.129483
C     0.428005    1.271956   -0.097784    0.004290   -0.014221   -0.160749
O    -2.088804   -1.345922    0.058464   -0.003161    0.014981    0.177207
O     0.457572    2.462843   -0.197982   -0.002139    0.002588    0.037181
H     2.412149   -1.597989    0.202997   -0.014633    0.041592    0.505300
H     0.131582   -2.147641    1.008616   -0.219802    0.918136    0.466392
H    -1.651708    1.183769   -0.147738   -0.026397    0.085238    0.971979
H     2.594425    0.913409   -0.007422   -0.014044    0.043463    0.521297
H     0.175864   -2.288698   -0.617572    0.186811   -0.820804    0.628754
