
                                 *****************
                                 * O   R   C   A *
                                 *****************

           --- An Ab Initio, DFT and Semiempirical electronic structure package ---

                  #######################################################
                  #                        -***-                        #
                  #          Department of theory and spectroscopy      #
                  #               Directorship: Frank Neese             #
                  #        Max Planck Institute fuer Kohlenforschung    #
                  #                Kaiser Wilhelm Platz 1               #
                  #                 D-45470 Muelheim/Ruhr               #
                  #                      Germany                        #
                  #                                                     #
                  #                  All rights reserved                #
                  #                        -***-                        #
                  #######################################################


                         Program Version 4.2.1 -  RELEASE  -


 With contributions from (in alphabetic order):
   Daniel Aravena         : Magnetic Suceptibility
   Michael Atanasov       : Ab Initio Ligand Field Theory (pilot matlab implementation)
   Alexander A. Auer      : GIAO ZORA, VPT2
   Ute Becker             : Parallelization
   Giovanni Bistoni       : ED, misc. LED, open-shell LED, HFLD
   Martin Brehm           : Molecular dynamics
   Dmytro Bykov           : SCF Hessian
   Vijay G. Chilkuri      : MRCI spin determinant printing, contributions to CSF-ICE
   Dipayan Datta          : RHF DLPNO-CCSD density
   Achintya Kumar Dutta   : EOM-CC, STEOM-CC
   Dmitry Ganyushin       : Spin-Orbit,Spin-Spin,Magnetic field MRCI
   Miquel Garcia          : C-PCM Hessian, Gaussian charge scheme
   Yang Guo               : DLPNO-NEVPT2, CIM, IAO-localization
   Andreas Hansen         : Spin unrestricted coupled pair/coupled cluster methods
   Benjamin Helmich-Paris : CASSCF linear response (MC-RPA)
   Lee Huntington         : MR-EOM, pCC
   Robert Izsak           : Overlap fitted RIJCOSX, COSX-SCS-MP3, EOM
   Christian Kollmar      : KDIIS, OOCD, Brueckner-CCSD(T), CCSD density
   Simone Kossmann        : Meta GGA functionals, TD-DFT gradient, OOMP2, MP2 Hessian
   Martin Krupicka        : AUTO-CI
   Lucas Lang             : DCDCAS
   Dagmar Lenk            : GEPOL surface, SMD
   Dimitrios Liakos       : Extrapolation schemes; Compound Job, initial MDCI parallelization
   Dimitrios Manganas     : Further ROCIS development; embedding schemes
   Dimitrios Pantazis     : SARC Basis sets
   Taras Petrenko         : DFT Hessian,TD-DFT gradient, ASA, ECA, R-Raman, ABS, FL, XAS/XES, NRVS
   Peter Pinski           : DLPNO-MP2, DLPNO-MP2 Gradient
   Christoph Reimann      : Effective Core Potentials
   Marius Retegan         : Local ZFS, SOC
   Christoph Riplinger    : Optimizer, TS searches, QM/MM, DLPNO-CCSD(T), (RO)-DLPNO pert. Triples
   Tobias Risthaus        : Range-separated hybrids, TD-DFT gradient, RPA, STAB
   Michael Roemelt        : Original ROCIS implementation
   Masaaki Saitow         : Open-shell DLPNO-CCSD energy and density
   Barbara Sandhoefer     : DKH picture change effects
   Avijit Sen             : IP-ROCIS
   Kantharuban Sivalingam : CASSCF convergence, NEVPT2, FIC-MRCI
   Bernardo de Souza      : ESD, SOC TD-DFT
   Georgi Stoychev        : AutoAux, RI-MP2 NMR
   Willem Van den Heuvel  : Paramagnetic NMR
   Boris Wezisla          : Elementary symmetry handling
   Frank Wennmohs         : Technical directorship


 We gratefully acknowledge several colleagues who have allowed us to
 interface, adapt or use parts of their codes:
   Stefan Grimme, W. Hujo, H. Kruse,             : VdW corrections, initial TS optimization,
                  C. Bannwarth                     DFT functionals, gCP, sTDA/sTD-DF
   Ed Valeev, F. Pavosevic, A. Kumar             : LibInt (2-el integral package), F12 methods
   Garnet Chan, S. Sharma, J. Yang, R. Olivares  : DMRG
   Ulf Ekstrom                                   : XCFun DFT Library
   Mihaly Kallay                                 : mrcc  (arbitrary order and MRCC methods)
   Andreas Klamt, Michael Diedenhofen            : otool_cosmo (COSMO solvation model)
   Jiri Pittner, Ondrej Demel                    : Mk-CCSD
   Frank Weinhold                                : gennbo (NPA and NBO analysis)
   Christopher J. Cramer and Donald G. Truhlar   : smd solvation model
   Lars Goerigk                                  : TD-DFT with DH, B97 family of functionals
   V. Asgeirsson, H. Jonsson                     : NEB implementation
   FAccTs GmbH                                   : IRC, NEB, NEB-TS, Multilevel, MM, QM/MM, CI optimization
   S Lehtola, MJT Oliveira, MAL Marques          : LibXC Library


 Your calculation uses the libint2 library for the computation of 2-el integrals
 For citations please refer to: http://libint.valeyev.net

 Your ORCA version has been built with support for libXC version: 4.2.3
 For citations please refer to: https://tddft.org/programs/libxc/

 This ORCA versions uses:
   CBLAS   interface :  Fast vector & matrix operations
   LAPACKE interface :  Fast linear algebra routines
   SCALAPACK package :  Parallel linear algebra routines


----- Orbital basis set information -----
Your calculation utilizes the basis: def2-SVP
   F. Weigend and R. Ahlrichs, Phys. Chem. Chem. Phys. 7, 3297 (2005).

================================================================================
                                        WARNINGS
                       Please study these warnings very carefully!
================================================================================


WARNING: Geometry Optimization
  ===> : Switching off AutoStart
         For restart on a previous wavefunction, please use MOREAD

INFO   : the flag for use of LIBINT has been found!

================================================================================
                                       INPUT FILE
================================================================================
NAME = Uracil_1.inp
|  1> !B3LYP def2-SVP OPT FREQ
|  2> %pal
|  3> nprocs 16
|  4> end
|  5> * xyz 1 1
|  6>    C        1.33878        0.51508       -0.01708
|  7>    C        1.24526       -0.81240        0.09268
|  8>    N       -0.02415       -1.41966        0.11620
|  9>    C       -1.17237       -0.61743        0.00888
| 10>    N       -1.05625        0.71979       -0.10636
| 11>    C        0.13881        1.36406       -0.11760
| 12>    O       -2.19305       -1.27075        0.03788
| 13>    O        0.23534        2.57757       -0.20466
| 14>    H        2.15069       -1.41636        0.16463
| 15>    H       -0.21763       -1.98249        0.95584
| 16>    H       -1.89431        1.28315       -0.17534
| 17>    H        2.29444        1.03083       -0.03758
| 18>    H       -0.17622       -2.13392       -0.60893
| 19> *
| 20> 
| 21>                          ****END OF INPUT****
================================================================================

                       *****************************
                       * Geometry Optimization Run *
                       *****************************

Geometry optimization settings:
Update method            Update   .... BFGS
Choice of coordinates    CoordSys .... Z-matrix Internals
Initial Hessian          InHess   .... Almoef's Model

Convergence Tolerances:
Energy Change            TolE     ....  5.0000e-06 Eh
Max. Gradient            TolMAXG  ....  3.0000e-04 Eh/bohr
RMS Gradient             TolRMSG  ....  1.0000e-04 Eh/bohr
Max. Displacement        TolMAXD  ....  4.0000e-03 bohr
RMS Displacement         TolRMSD  ....  2.0000e-03 bohr
Strict Convergence                ....  False
------------------------------------------------------------------------------
                        ORCA OPTIMIZATION COORDINATE SETUP
------------------------------------------------------------------------------

The optimization will be done in new redundant internal coordinates
Making redundant internal coordinates   ...  (new redundants) done
Evaluating the initial hessian          ...  (Almloef) done
Evaluating the coordinates              ...  done
Calculating the B-matrix                .... done
Calculating the G-matrix                .... done
Diagonalizing the G-matrix              .... done
The first mode is                       ....   29
The number of degrees of freedom        ....   33

    -----------------------------------------------------------------
                    Redundant Internal Coordinates


    -----------------------------------------------------------------
         Definition                    Initial Value    Approx d2E/dq
    -----------------------------------------------------------------
      1. B(C   1,C   0)                  1.3353         0.763883   
      2. B(N   2,C   1)                  1.4074         0.524984   
      3. B(C   3,N   2)                  1.4048         0.529959   
      4. B(N   4,C   3)                  1.3472         0.654901   
      5. B(C   5,N   4)                  1.3577         0.630073   
      6. B(C   5,C   0)                  1.4734         0.459979   
      7. B(O   6,C   3)                  1.2122         1.075292   
      8. B(O   7,C   5)                  1.2205         1.043225   
      9. B(H   8,C   1)                  1.0908         0.359102   
     10. B(H   9,N   2)                  1.0292         0.403272   
     11. B(H  10,N   4)                  1.0122         0.429281   
     12. B(H  11,C   0)                  1.0861         0.365240   
     13. B(H  12,N   2)                  1.0291         0.403344   
     14. A(C   5,C   0,H  11)          116.2123         0.336458   
     15. A(C   1,C   0,H  11)          122.3604         0.366563   
     16. A(C   1,C   0,C   5)          121.4273         0.427120   
     17. A(C   0,C   1,N   2)          119.5712         0.434522   
     18. A(C   0,C   1,H   8)          119.8515         0.365500   
     19. A(N   2,C   1,H   8)          120.5772         0.340907   
     20. A(C   3,N   2,H   9)          102.7657         0.345142   
     21. A(C   1,N   2,H   9)          114.7819         0.344595   
     22. A(C   3,N   2,H  12)          102.8110         0.345152   
     23. A(C   1,N   2,H  12)          114.8960         0.344606   
     24. A(C   1,N   2,C   3)          119.3104         0.404463   
     25. A(H   9,N   2,H  12)           99.6430         0.296540   
     26. A(N   2,C   3,O   6)          112.2474         0.460044   
     27. A(N   2,C   3,N   4)          120.1931         0.420653   
     28. A(N   4,C   3,O   6)          127.5593         0.478255   
     29. A(C   3,N   4,H  10)          119.1391         0.361541   
     30. A(C   3,N   4,C   5)          123.2019         0.433900   
     31. A(C   5,N   4,H  10)          117.6530         0.359167   
     32. A(C   0,C   5,N   4)          116.2877         0.410035   
     33. A(N   4,C   5,O   7)          122.8224         0.472229   
     34. A(C   0,C   5,O   7)          120.8900         0.448847   
     35. D(N   2,C   1,C   0,C   5)     -0.1322         0.041764   
     36. D(H   8,C   1,C   0,C   5)    179.9514         0.041764   
     37. D(H   8,C   1,C   0,H  11)     -0.0495         0.041764   
     38. D(N   2,C   1,C   0,H  11)    179.8668         0.041764   
     39. D(C   3,N   2,C   1,H   8)   -179.3957         0.023739   
     40. D(H   9,N   2,C   1,C   0)   -121.8797         0.023739   
     41. D(H  12,N   2,C   1,C   0)    123.4329         0.023739   
     42. D(C   3,N   2,C   1,C   0)      0.6885         0.023739   
     43. D(H   9,N   2,C   1,H   8)     58.0361         0.023739   
     44. D(H  12,N   2,C   1,H   8)    -56.6513         0.023739   
     45. D(O   6,C   3,N   2,C   1)    179.7146         0.024214   
     46. D(N   4,C   3,N   2,H   9)    127.8885         0.024214   
     47. D(N   4,C   3,N   2,C   1)     -0.4339         0.024214   
     48. D(O   6,C   3,N   2,H   9)    -51.9630         0.024214   
     49. D(N   4,C   3,N   2,H  12)   -128.9522         0.024214   
     50. D(O   6,C   3,N   2,H  12)     51.1963         0.024214   
     51. D(H  10,N   4,C   3,O   6)      0.3028         0.035048   
     52. D(H  10,N   4,C   3,N   2)   -179.5238         0.035048   
     53. D(C   5,N   4,C   3,O   6)    179.3964         0.035048   
     54. D(C   5,N   4,C   3,N   2)     -0.4302         0.035048   
     55. D(O   7,C   5,N   4,H  10)      0.0995         0.032229   
     56. D(C   0,C   5,N   4,H  10)   -179.9371         0.032229   
     57. D(C   0,C   5,N   4,C   3)      0.9566         0.032229   
     58. D(O   7,C   5,C   0,H  11)     -0.7082         0.014413   
     59. D(O   7,C   5,C   0,C   1)    179.2909         0.014413   
     60. D(O   7,C   5,N   4,C   3)   -179.0068         0.032229   
     61. D(N   4,C   5,C   0,H  11)    179.3277         0.014413   
     62. D(N   4,C   5,C   0,C   1)     -0.6732         0.014413   
    -----------------------------------------------------------------

Number of atoms                         .... 13
Number of degrees of freedom            .... 62

         *************************************************************
         *                GEOMETRY OPTIMIZATION CYCLE   1            *
         *************************************************************
---------------------------------
CARTESIAN COORDINATES (ANGSTROEM)
---------------------------------
  C      1.338780    0.515080   -0.017080
  C      1.245260   -0.812400    0.092680
  N     -0.024150   -1.419660    0.116200
  C     -1.172370   -0.617430    0.008880
  N     -1.056250    0.719790   -0.106360
  C      0.138810    1.364060   -0.117600
  O     -2.193050   -1.270750    0.037880
  O      0.235340    2.577570   -0.204660
  H      2.150690   -1.416360    0.164630
  H     -0.217630   -1.982490    0.955840
  H     -1.894310    1.283150   -0.175340
  H      2.294440    1.030830   -0.037580
  H     -0.176220   -2.133920   -0.608930

----------------------------
CARTESIAN COORDINATES (A.U.)
----------------------------
  NO LB      ZA    FRAG     MASS         X           Y           Z
   0 C     6.0000    0    12.011    2.529928    0.973360   -0.032277
   1 C     6.0000    0    12.011    2.353200   -1.535214    0.175140
   2 N     7.0000    0    14.007   -0.045637   -2.682769    0.219586
   3 C     6.0000    0    12.011   -2.215458   -1.166774    0.016781
   4 N     7.0000    0    14.007   -1.996023    1.360206   -0.200991
   5 C     6.0000    0    12.011    0.262313    2.577700   -0.222232
   6 O     8.0000    0    15.999   -4.144264   -2.401369    0.071583
   7 O     8.0000    0    15.999    0.444728    4.870901   -0.386751
   8 H     1.0000    0     1.008    4.064215   -2.676533    0.311106
   9 H     1.0000    0     1.008   -0.411261   -3.746363    1.806276
  10 H     1.0000    0     1.008   -3.579727    2.424802   -0.331345
  11 H     1.0000    0     1.008    4.335863    1.947986   -0.071016
  12 H     1.0000    0     1.008   -0.333008   -4.032524   -1.150711

--------------------------------
INTERNAL COORDINATES (ANGSTROEM)
--------------------------------
 C      0   0   0     0.000000000000     0.00000000     0.00000000
 C      1   0   0     1.335288882003     0.00000000     0.00000000
 N      2   1   0     1.407380419823   119.57115907     0.00000000
 C      3   2   1     1.404813056495   119.31044904     0.68851628
 N      4   3   2     1.347190202013   120.19312262   359.56613162
 C      5   4   3     1.357710784409   123.20192506   359.56982096
 O      4   3   2     1.212211072710   112.24738041   179.71462617
 O      6   5   4     1.220452377031   122.82236896   180.99322907
 H      2   1   3     1.090755687127   119.85153982   180.08361692
 H      3   2   1     1.029178045287   114.78190191   238.12029294
 H      5   4   3     1.012164657356   119.13913307   180.47615880
 H      1   2   3     1.086141955777   122.36044792   179.86684319
 H      3   2   1     1.029128830322   114.89596939   123.43288883

---------------------------
INTERNAL COORDINATES (A.U.)
---------------------------
 C      0   0   0     0.000000000000     0.00000000     0.00000000
 C      1   0   0     2.523330296655     0.00000000     0.00000000
 N      2   1   0     2.659563559708   119.57115907     0.00000000
 C      3   2   1     2.654711946133   119.31044904     0.68851628
 N      4   3   2     2.545820532107   120.19312262   359.56613162
 C      5   4   3     2.565701551604   123.20192506   359.56982096
 O      4   3   2     2.290746943928   112.24738041   179.71462617
 O      6   5   4     2.306320752081   122.82236896   180.99322907
 H      2   1   3     2.061229527687   119.85153982   180.08361692
 H      3   2   1     1.944864648636   114.78190191   238.12029294
 H      5   4   3     1.912714004837   119.13913307   180.47615880
 H      1   2   3     2.052510838981   122.36044792   179.86684319
 H      3   2   1     1.944771645831   114.89596939   123.43288883

---------------------
BASIS SET INFORMATION
---------------------
There are 4 groups of distinct atoms

 Group   1 Type C   : 7s4p1d contracted to 3s2p1d pattern {511/31/1}
 Group   2 Type N   : 7s4p1d contracted to 3s2p1d pattern {511/31/1}
 Group   3 Type O   : 7s4p1d contracted to 3s2p1d pattern {511/31/1}
 Group   4 Type H   : 4s1p contracted to 2s1p pattern {31/1}

Atom   0C    basis set group =>   1
Atom   1C    basis set group =>   1
Atom   2N    basis set group =>   2
Atom   3C    basis set group =>   1
Atom   4N    basis set group =>   2
Atom   5C    basis set group =>   1
Atom   6O    basis set group =>   3
Atom   7O    basis set group =>   3
Atom   8H    basis set group =>   4
Atom   9H    basis set group =>   4
Atom  10H    basis set group =>   4
Atom  11H    basis set group =>   4
Atom  12H    basis set group =>   4


           ************************************************************
           *        Program running with 16 parallel MPI-processes    *
           *              working on a common directory               *
           ************************************************************
------------------------------------------------------------------------------
                           ORCA GTO INTEGRAL CALCULATION
------------------------------------------------------------------------------

                         BASIS SET STATISTICS AND STARTUP INFO

 # of primitive gaussian shells          ...  121
 # of primitive gaussian functions       ...  227
 # of contracted shells                  ...   63
 # of contracted basis functions         ...  137
 Highest angular momentum                ...    2
 Maximum contraction depth               ...    5
 Integral package used                   ... LIBINT
 Integral threshhold            Thresh   ...  2.500e-11
 Primitive cut-off              TCut     ...  2.500e-12


------------------------------ INTEGRAL EVALUATION ----------------------------


 * One electron integrals 
 Pre-screening matrix                    ... done
 Shell pair data                         ... done (   0.001 sec)



           ************************************************************
           *        Program running with 16 parallel MPI-processes    *
           *              working on a common directory               *
           ************************************************************
-------------------------------------------------------------------------------
                                 ORCA SCF
-------------------------------------------------------------------------------

------------
SCF SETTINGS
------------
Hamiltonian:
 Density Functional     Method          .... DFT(GTOs)
 Exchange Functional    Exchange        .... B88
   X-Alpha parameter    XAlpha          ....  0.666667
   Becke's b parameter  XBeta           ....  0.004200
 Correlation Functional Correlation     .... LYP
 LDA part of GGA corr.  LDAOpt          .... VWN-5
 Gradients option       PostSCFGGA      .... off
 Hybrid DFT is turned on
   Fraction HF Exchange ScalHFX         ....  0.200000
   Scaling of DF-GGA-X  ScalDFX         ....  0.720000
   Scaling of DF-GGA-C  ScalDFC         ....  0.810000
   Scaling of DF-LDA-C  ScalLDAC        ....  1.000000
   Perturbative correction              ....  0.000000
   Density functional embedding theory  .... OFF
   NL short-range parameter             ....  4.800000


General Settings:
 Integral files         IntName         .... Uracil_1
 Hartree-Fock type      HFTyp           .... RHF
 Total Charge           Charge          ....    1
 Multiplicity           Mult            ....    1
 Number of Electrons    NEL             ....   58
 Basis Dimension        Dim             ....  137
 Nuclear Repulsion      ENuc            ....    372.4078870936 Eh

Convergence Acceleration:
 DIIS                   CNVDIIS         .... on
   Start iteration      DIISMaxIt       ....    12
   Startup error        DIISStart       ....  0.200000
   # of expansion vecs  DIISMaxEq       ....     5
   Bias factor          DIISBfac        ....   1.050
   Max. coefficient     DIISMaxC        ....  10.000
 Newton-Raphson         CNVNR           .... off
 SOSCF                  CNVSOSCF        .... on
   Start iteration      SOSCFMaxIt      ....   150
   Startup grad/error   SOSCFStart      ....  0.003300
 Level Shifting         CNVShift        .... on
   Level shift para.    LevelShift      ....    0.2500
   Turn off err/grad.   ShiftErr        ....    0.0010
 Zerner damping         CNVZerner       .... off
 Static damping         CNVDamp         .... on
   Fraction old density DampFac         ....    0.7000
   Max. Damping (<1)    DampMax         ....    0.9800
   Min. Damping (>=0)   DampMin         ....    0.0000
   Turn off err/grad.   DampErr         ....    0.1000
 Fernandez-Rico         CNVRico         .... off

SCF Procedure:
 Maximum # iterations   MaxIter         ....   125
 SCF integral mode      SCFMode         .... Direct
   Integral package                     .... LIBINT
 Reset frequency        DirectResetFreq ....    20
 Integral Threshold     Thresh          ....  2.500e-11 Eh
 Primitive CutOff       TCut            ....  2.500e-12 Eh

Convergence Tolerance:
 Convergence Check Mode ConvCheckMode   .... Total+1el-Energy
 Convergence forced     ConvForced      .... 0
 Energy Change          TolE            ....  1.000e-08 Eh
 1-El. energy change                    ....  1.000e-05 Eh
 Orbital Gradient       TolG            ....  1.000e-05
 Orbital Rotation angle TolX            ....  1.000e-05
 DIIS Error             TolErr          ....  5.000e-07


Diagonalization of the overlap matrix:
Smallest eigenvalue                        ... 1.246e-03
Time for diagonalization                   ...    0.005 sec
Threshold for overlap eigenvalues          ... 1.000e-08
Number of eigenvalues below threshold      ... 0
Time for construction of square roots      ...    0.002 sec
Total time needed                          ...    0.008 sec

-------------------
DFT GRID GENERATION
-------------------

General Integration Accuracy     IntAcc      ...  4.340
Radial Grid Type                 RadialGrid  ... Gauss-Chebyshev
Angular Grid (max. acc.)         AngularGrid ... Lebedev-110
Angular grid pruning method      GridPruning ... 3 (G Style)
Weight generation scheme         WeightScheme... Becke
Basis function cutoff            BFCut       ...    1.0000e-11
Integration weight cutoff        WCut        ...    1.0000e-14
Grids for H and He will be reduced by one unit

# of grid points (after initial pruning)     ...  17430 (   0.0 sec)
# of grid points (after weights+screening)   ...  16314 (   0.0 sec)
nearest neighbour list constructed           ...    0.0 sec
Grid point re-assignment to atoms done       ...    0.0 sec
Grid point division into batches done        ...    0.0 sec
Reduced shell lists constructed in    0.0 sec

Total number of grid points                  ...    16314
Total number of batches                      ...      260
Average number of points per batch           ...       62
Average number of grid points per atom       ...     1255
Average number of shells per batch           ...    51.33 (81.48%)
Average number of basis functions per batch  ...   115.33 (84.18%)
Average number of large shells per batch     ...    44.22 (86.15%)
Average number of large basis fcns per batch ...    95.89 (83.14%)
Maximum spatial batch extension              ...   3.73,  3.66, 10.90 au
Average spatial batch extension              ...   0.12,  0.12,  0.17 au

Time for grid setup =    0.052 sec

------------------------------
INITIAL GUESS: MODEL POTENTIAL
------------------------------
Loading Hartree-Fock densities                     ... done
Calculating cut-offs                               ... done
Setting up the integral package                    ... done
Initializing the effective Hamiltonian             ... done
Starting the Coulomb interaction                   ... done (   0.0 sec)
Reading the grid                                   ... done
Mapping shells                                     ... done
Starting the XC term evaluation                    ... done (   0.0 sec)
  promolecular density results
     # of electrons  =     58.994365715
     EX              =    -51.705306378
     EC              =     -2.062314485
     EX+EC           =    -53.767620863
Transforming the Hamiltonian                       ... done (   0.0 sec)
Diagonalizing the Hamiltonian                      ... done (   0.0 sec)
Back transforming the eigenvectors                 ... done (   0.0 sec)
Now organizing SCF variables                       ... done
                      ------------------
                      INITIAL GUESS DONE (   0.2 sec)
                      ------------------
--------------
SCF ITERATIONS
--------------
ITER       Energy         Delta-E        Max-DP      RMS-DP      [F,P]     Damp
               ***  Starting incremental Fock matrix formation  ***
  0   -414.2652476120   0.000000000000 0.19565609  0.00506495  0.2986635 0.7000
  1   -414.4183385540  -0.153090942032 0.10484933  0.00287247  0.0985257 0.7000
                               ***Turning on DIIS***
  2   -414.4610685528  -0.042729998843 0.07579945  0.00318844  0.0431768 0.0000
  3   -414.5535890610  -0.092520508201 0.09827643  0.00226775  0.0502668 0.0000
  4   -414.5645281418  -0.010939080749 0.01548780  0.00054124  0.0313915 0.0000
  5   -414.5674011074  -0.002872965625 0.00553385  0.00015515  0.0044232 0.0000
                      *** Initiating the SOSCF procedure ***
                           *** Shutting down DIIS ***
                      *** Re-Reading the Fockian *** 
                      *** Removing any level shift *** 
ITER      Energy       Delta-E        Grad      Rot      Max-DP    RMS-DP
  6   -414.56749634  -0.0000952311  0.000617  0.000617  0.001790  0.000059
               *** Restarting incremental Fock matrix formation ***
  7   -414.56751744  -0.0000210991  0.000254  0.000712  0.001017  0.000038
  8   -414.56751796  -0.0000005273  0.000305  0.000796  0.000710  0.000024
  9   -414.56751886  -0.0000008941  0.000170  0.000416  0.000404  0.000015
 10   -414.56751908  -0.0000002244  0.000079  0.000064  0.000199  0.000005
 11   -414.56751918  -0.0000000962  0.000035  0.000109  0.000114  0.000004
 12   -414.56751919  -0.0000000138  0.000030  0.000041  0.000054  0.000002
 13   -414.56751921  -0.0000000119  0.000014  0.000025  0.000043  0.000002
 14   -414.56751921  -0.0000000036  0.000007  0.000018  0.000024  0.000001
 15   -414.56751921  -0.0000000006  0.000006  0.000008  0.000012  0.000000
                  ***Gradient check signals convergence***
              ***Rediagonalizing the Fockian in SOSCF/NRSCF***

               *****************************************************
               *                     SUCCESS                       *
               *           SCF CONVERGED AFTER  16 CYCLES          *
               *****************************************************

Setting up the final grid:

General Integration Accuracy     IntAcc      ...  4.670
Radial Grid Type                 RadialGrid  ... Gauss-Chebyshev
Angular Grid (max. acc.)         AngularGrid ... Lebedev-302
Angular grid pruning method      GridPruning ... 3 (G Style)
Weight generation scheme         WeightScheme... Becke
Basis function cutoff            BFCut       ...    1.0000e-11
Integration weight cutoff        WCut        ...    1.0000e-14
Grids for H and He will be reduced by one unit

# of grid points (after initial pruning)     ...  66666 (   0.0 sec)
# of grid points (after weights+screening)   ...  61566 (   0.0 sec)
nearest neighbour list constructed           ...    0.0 sec
Grid point re-assignment to atoms done       ...    0.0 sec
Grid point division into batches done        ...    0.3 sec
Reduced shell lists constructed in    0.3 sec

Total number of grid points                  ...    61566
Total number of batches                      ...      969
Average number of points per batch           ...       63
Average number of grid points per atom       ...     4736
Average number of shells per batch           ...    52.02 (82.57%)
Average number of basis functions per batch  ...   115.85 (84.57%)
Average number of large shells per batch     ...    41.47 (79.72%)
Average number of large basis fcns per batch ...    88.15 (76.08%)
Maximum spatial batch extension              ...   3.08,  3.37,  9.15 au
Average spatial batch extension              ...   0.08,  0.08,  0.09 au

Final grid set up in    0.4 sec
Final integration                            ... done (   0.1 sec)
Change in XC energy                          ...    -0.000407898
Integrated number of electrons               ...    57.999976687
Previous integrated no of electrons          ...    57.996554682

----------------
TOTAL SCF ENERGY
----------------

Total Energy       :         -414.56792711 Eh          -11280.96681 eV

Components:
Nuclear Repulsion  :          372.40788709 Eh           10133.73380 eV
Electronic Energy  :         -786.97581420 Eh          -21414.70061 eV
One Electron Energy:        -1289.15170540 Eh          -35079.60132 eV
Two Electron Energy:          502.17589120 Eh           13664.90071 eV

Virial components:
Potential Energy   :         -826.05168266 Eh          -22478.00905 eV
Kinetic Energy     :          411.48375555 Eh           11197.04224 eV
Virial Ratio       :            2.00749524


DFT components:
N(Alpha)           :       28.999988343577 electrons
N(Beta)            :       28.999988343577 electrons
N(Total)           :       57.999976687155 electrons
E(X)               :      -41.338707964095 Eh       
E(C)               :       -2.391481204777 Eh       
E(XC)              :      -43.730189168872 Eh       
DFET-embed. en.    :        0.000000000000 Eh       

---------------
SCF CONVERGENCE
---------------

  Last Energy change         ...   -8.4299e-10  Tolerance :   1.0000e-08
  Last MAX-Density change    ...    4.7777e-06  Tolerance :   1.0000e-07
  Last RMS-Density change    ...    2.1545e-07  Tolerance :   5.0000e-09
  Last Orbital Gradient      ...    1.6530e-06  Tolerance :   1.0000e-05
  Last Orbital Rotation      ...    3.9883e-06  Tolerance :   1.0000e-05

             **** THE GBW FILE WAS UPDATED (Uracil_1.gbw) ****
             **** DENSITY FILE WAS UPDATED (Uracil_1.scfp) ****
             **** ENERGY FILE WAS UPDATED (Uracil_1.en.tmp) ****
             **** THE GBW FILE WAS UPDATED (Uracil_1.gbw) ****
             **** DENSITY FILE WAS UPDATED (Uracil_1.scfp) ****
----------------
ORBITAL ENERGIES
----------------

  NO   OCC          E(Eh)            E(eV) 
   0   2.0000     -19.340012      -526.2685 
   1   2.0000     -19.311177      -525.4838 
   2   2.0000     -14.700437      -400.0192 
   3   2.0000     -14.598731      -397.2517 
   4   2.0000     -10.562812      -287.4287 
   5   2.0000     -10.500260      -285.7266 
   6   2.0000     -10.466407      -284.8054 
   7   2.0000     -10.423638      -283.6416 
   8   2.0000      -1.329008       -36.1642 
   9   2.0000      -1.239471       -33.7277 
  10   2.0000      -1.227087       -33.3907 
  11   2.0000      -1.159493       -31.5514 
  12   2.0000      -1.016754       -27.6673 
  13   2.0000      -0.918924       -25.0052 
  14   2.0000      -0.897178       -24.4135 
  15   2.0000      -0.841814       -22.9069 
  16   2.0000      -0.831332       -22.6217 
  17   2.0000      -0.795582       -21.6489 
  18   2.0000      -0.743788       -20.2395 
  19   2.0000      -0.679907       -18.5012 
  20   2.0000      -0.665742       -18.1158 
  21   2.0000      -0.655098       -17.8261 
  22   2.0000      -0.628276       -17.0962 
  23   2.0000      -0.609313       -16.5803 
  24   2.0000      -0.603654       -16.4263 
  25   2.0000      -0.510385       -13.8883 
  26   2.0000      -0.507601       -13.8125 
  27   2.0000      -0.494784       -13.4638 
  28   2.0000      -0.460862       -12.5407 
  29   0.0000      -0.271905        -7.3989 
  30   0.0000      -0.228641        -6.2216 
  31   0.0000      -0.185233        -5.0404 
  32   0.0000      -0.137692        -3.7468 
  33   0.0000      -0.099796        -2.7156 
  34   0.0000      -0.097042        -2.6406 
  35   0.0000      -0.095639        -2.6025 
  36   0.0000      -0.051165        -1.3923 
  37   0.0000      -0.033072        -0.8999 
  38   0.0000      -0.007103        -0.1933 
  39   0.0000       0.013294         0.3617 
  40   0.0000       0.054371         1.4795 
  41   0.0000       0.068708         1.8696 
  42   0.0000       0.087201         2.3729 
  43   0.0000       0.134979         3.6730 
  44   0.0000       0.187096         5.0911 
  45   0.0000       0.208056         5.6615 
  46   0.0000       0.212660         5.7868 
  47   0.0000       0.217192         5.9101 
  48   0.0000       0.292859         7.9691 
  49   0.0000       0.294044         8.0013 
  50   0.0000       0.312536         8.5045 
  51   0.0000       0.321399         8.7457 
  52   0.0000       0.326683         8.8895 
  53   0.0000       0.370373        10.0783 
  54   0.0000       0.374496        10.1906 
  55   0.0000       0.397880        10.8269 
  56   0.0000       0.401891        10.9360 
  57   0.0000       0.422129        11.4867 
  58   0.0000       0.450008        12.2453 
  59   0.0000       0.479713        13.0537 
  60   0.0000       0.507616        13.8129 
  61   0.0000       0.540825        14.7166 
  62   0.0000       0.550829        14.9888 
  63   0.0000       0.576610        15.6904 
  64   0.0000       0.583618        15.8811 
  65   0.0000       0.601456        16.3665 
  66   0.0000       0.629317        17.1246 
  67   0.0000       0.647605        17.6222 
  68   0.0000       0.677600        18.4384 
  69   0.0000       0.799944        21.7676 
  70   0.0000       0.807968        21.9859 
  71   0.0000       0.855693        23.2846 
  72   0.0000       0.872307        23.7367 
  73   0.0000       0.884764        24.0757 
  74   0.0000       0.898150        24.4399 
  75   0.0000       0.902029        24.5455 
  76   0.0000       0.953720        25.9520 
  77   0.0000       0.973049        26.4780 
  78   0.0000       1.012190        27.5431 
  79   0.0000       1.077884        29.3307 
  80   0.0000       1.090531        29.6749 
  81   0.0000       1.111165        30.2363 
  82   0.0000       1.152974        31.3740 
  83   0.0000       1.185779        32.2667 
  84   0.0000       1.285464        34.9792 
  85   0.0000       1.313838        35.7514 
  86   0.0000       1.340915        36.4881 
  87   0.0000       1.344115        36.5752 
  88   0.0000       1.365305        37.1518 
  89   0.0000       1.385954        37.7137 
  90   0.0000       1.471485        40.0411 
  91   0.0000       1.506489        40.9936 
  92   0.0000       1.534856        41.7656 
  93   0.0000       1.548369        42.1333 
  94   0.0000       1.599553        43.5261 
  95   0.0000       1.636126        44.5213 
  96   0.0000       1.639752        44.6199 
  97   0.0000       1.688688        45.9515 
  98   0.0000       1.742031        47.4031 
  99   0.0000       1.760297        47.9001 
 100   0.0000       1.783755        48.5384 
 101   0.0000       1.815038        49.3897 
 102   0.0000       1.847828        50.2819 
 103   0.0000       1.870791        50.9068 
 104   0.0000       1.879442        51.1422 
 105   0.0000       1.936651        52.6990 
 106   0.0000       1.959130        53.3106 
 107   0.0000       2.030127        55.2426 
 108   0.0000       2.057140        55.9776 
 109   0.0000       2.093488        56.9667 
 110   0.0000       2.182516        59.3893 
 111   0.0000       2.223825        60.5134 
 112   0.0000       2.279926        62.0400 
 113   0.0000       2.296986        62.5042 
 114   0.0000       2.305730        62.7421 
 115   0.0000       2.385925        64.9243 
 116   0.0000       2.405230        65.4496 
 117   0.0000       2.412847        65.6569 
 118   0.0000       2.487055        67.6762 
 119   0.0000       2.505953        68.1905 
 120   0.0000       2.524968        68.7079 
 121   0.0000       2.544802        69.2476 
 122   0.0000       2.563175        69.7475 
 123   0.0000       2.676822        72.8400 
 124   0.0000       2.719493        74.0012 
 125   0.0000       2.749808        74.8261 
 126   0.0000       2.806127        76.3586 
 127   0.0000       2.921050        79.4858 
 128   0.0000       2.924139        79.5699 
 129   0.0000       2.971126        80.8484 
 130   0.0000       3.009279        81.8866 
 131   0.0000       3.069948        83.5375 
 132   0.0000       3.199697        87.0682 
 133   0.0000       3.280920        89.2784 
 134   0.0000       3.374300        91.8194 
 135   0.0000       3.454133        93.9917 
 136   0.0000       3.567187        97.0681 

                    ********************************
                    * MULLIKEN POPULATION ANALYSIS *
                    ********************************

-----------------------
MULLIKEN ATOMIC CHARGES
-----------------------
   0 C :   -0.028038
   1 C :    0.083728
   2 N :    0.045692
   3 C :    0.128881
   4 N :   -0.015080
   5 C :    0.142982
   6 O :   -0.132474
   7 O :   -0.106868
   8 H :    0.103104
   9 H :    0.237130
  10 H :    0.205697
  11 H :    0.097573
  12 H :    0.237674
Sum of atomic charges:    1.0000000

--------------------------------
MULLIKEN REDUCED ORBITAL CHARGES
--------------------------------
  0 C s       :     3.256302  s :     3.256302
      pz      :     0.881917  p :     2.739863
      px      :     0.985903
      py      :     0.872043
      dz2     :     0.002812  d :     0.031873
      dxz     :     0.002007
      dyz     :     0.007298
      dx2y2   :     0.009479
      dxy     :     0.010277
  1 C s       :     3.062142  s :     3.062142
      pz      :     1.068029  p :     2.808315
      px      :     0.749744
      py      :     0.990542
      dz2     :     0.003919  d :     0.045815
      dxz     :     0.003847
      dyz     :     0.006792
      dx2y2   :     0.013184
      dxy     :     0.018073
  2 N s       :     3.276235  s :     3.276235
      pz      :     1.251580  p :     3.650467
      px      :     1.165777
      py      :     1.233111
      dz2     :     0.003276  d :     0.027606
      dxz     :     0.005636
      dyz     :     0.006328
      dx2y2   :     0.005558
      dxy     :     0.006808
  3 C s       :     2.994315  s :     2.994315
      pz      :     0.910687  p :     2.738758
      px      :     0.873608
      py      :     0.954463
      dz2     :     0.007642  d :     0.138046
      dxz     :     0.017072
      dyz     :     0.023684
      dx2y2   :     0.048195
      dxy     :     0.041452
  4 N s       :     3.316816  s :     3.316816
      pz      :     1.558049  p :     3.677904
      px      :     1.106400
      py      :     1.013455
      dz2     :     0.002256  d :     0.020361
      dxz     :     0.002063
      dyz     :     0.003443
      dx2y2   :     0.007326
      dxy     :     0.005272
  5 C s       :     2.990799  s :     2.990799
      pz      :     0.862897  p :     2.748896
      px      :     0.971029
      py      :     0.914970
      dz2     :     0.006642  d :     0.117323
      dxz     :     0.010250
      dyz     :     0.021519
      dx2y2   :     0.025793
      dxy     :     0.053119
  6 O s       :     3.749233  s :     3.749233
      pz      :     1.353636  p :     4.363076
      px      :     1.423600
      py      :     1.585841
      dz2     :     0.002298  d :     0.020164
      dxz     :     0.004890
      dyz     :     0.001707
      dx2y2   :     0.004704
      dxy     :     0.006566
  7 O s       :     3.747720  s :     3.747720
      pz      :     1.276947  p :     4.340019
      px      :     1.762999
      py      :     1.300074
      dz2     :     0.002194  d :     0.019129
      dxz     :     0.000087
      dyz     :     0.006157
      dx2y2   :     0.006561
      dxy     :     0.004129
  8 H s       :     0.873116  s :     0.873116
      pz      :     0.004528  p :     0.023780
      px      :     0.012679
      py      :     0.006573
  9 H s       :     0.716978  s :     0.716978
      pz      :     0.023495  p :     0.045892
      px      :     0.008130
      py      :     0.014267
 10 H s       :     0.751233  s :     0.751233
      pz      :     0.008744  p :     0.043069
      px      :     0.021194
      py      :     0.013132
 11 H s       :     0.878609  s :     0.878609
      pz      :     0.003512  p :     0.023819
      px      :     0.013702
      py      :     0.006605
 12 H s       :     0.716432  s :     0.716432
      pz      :     0.019942  p :     0.045894
      px      :     0.007806
      py      :     0.018145


                     *******************************
                     * LOEWDIN POPULATION ANALYSIS *
                     *******************************

----------------------
LOEWDIN ATOMIC CHARGES
----------------------
   0 C :    0.025605
   1 C :    0.027211
   2 N :    0.269809
   3 C :    0.092160
   4 N :    0.073101
   5 C :    0.068178
   6 O :   -0.111825
   7 O :   -0.083653
   8 H :    0.071169
   9 H :    0.170340
  10 H :    0.141656
  11 H :    0.085941
  12 H :    0.170307

-------------------------------
LOEWDIN REDUCED ORBITAL CHARGES
-------------------------------
  0 C s       :     2.885713  s :     2.885713
      pz      :     0.885099  p :     3.002685
      px      :     1.057837
      py      :     1.059749
      dz2     :     0.007485  d :     0.085998
      dxz     :     0.003697
      dyz     :     0.014702
      dx2y2   :     0.028347
      dxy     :     0.031767
  1 C s       :     2.850662  s :     2.850662
      pz      :     1.026901  p :     3.010119
      px      :     0.905452
      py      :     1.077766
      dz2     :     0.009036  d :     0.112009
      dxz     :     0.007021
      dyz     :     0.012642
      dx2y2   :     0.036325
      dxy     :     0.046983
  2 N s       :     2.997038  s :     2.997038
      pz      :     1.234805  p :     3.663965
      px      :     1.214951
      py      :     1.214209
      dz2     :     0.009435  d :     0.069188
      dxz     :     0.010622
      dyz     :     0.016621
      dx2y2   :     0.014584
      dxy     :     0.017926
  3 C s       :     2.793329  s :     2.793329
      pz      :     0.886328  p :     2.812921
      px      :     0.949376
      py      :     0.977217
      dz2     :     0.017228  d :     0.301590
      dxz     :     0.031969
      dyz     :     0.043626
      dx2y2   :     0.110211
      dxy     :     0.098556
  4 N s       :     3.038587  s :     3.038587
      pz      :     1.491364  p :     3.830846
      px      :     1.189262
      py      :     1.150221
      dz2     :     0.005626  d :     0.057466
      dxz     :     0.003940
      dyz     :     0.006932
      dx2y2   :     0.022139
      dxy     :     0.018828
  5 C s       :     2.822073  s :     2.822073
      pz      :     0.851845  p :     2.844113
      px      :     0.977847
      py      :     1.014421
      dz2     :     0.015628  d :     0.265635
      dxz     :     0.021107
      dyz     :     0.039653
      dx2y2   :     0.063591
      dxy     :     0.125656
  6 O s       :     3.550210  s :     3.550210
      pz      :     1.358931  p :     4.527499
      px      :     1.526173
      py      :     1.642395
      dz2     :     0.004860  d :     0.034115
      dxz     :     0.006027
      dyz     :     0.002316
      dx2y2   :     0.007666
      dxy     :     0.013246
  7 O s       :     3.558365  s :     3.558365
      pz      :     1.282059  p :     4.493046
      px      :     1.774902
      py      :     1.436086
      dz2     :     0.004567  d :     0.032242
      dxz     :     0.000113
      dyz     :     0.007688
      dx2y2   :     0.013653
      dxy     :     0.006220
  8 H s       :     0.854508  s :     0.854508
      pz      :     0.015576  p :     0.074323
      px      :     0.039330
      py      :     0.019417
  9 H s       :     0.715660  s :     0.715660
      pz      :     0.055231  p :     0.114001
      px      :     0.020927
      py      :     0.037842
 10 H s       :     0.735613  s :     0.735613
      pz      :     0.032071  p :     0.122731
      px      :     0.057189
      py      :     0.033471
 11 H s       :     0.842958  s :     0.842958
      pz      :     0.011435  p :     0.071101
      px      :     0.041286
      py      :     0.018379
 12 H s       :     0.715657  s :     0.715657
      pz      :     0.046035  p :     0.114035
      px      :     0.019967
      py      :     0.048034


                      *****************************
                      * MAYER POPULATION ANALYSIS *
                      *****************************

  NA   - Mulliken gross atomic population
  ZA   - Total nuclear charge
  QA   - Mulliken gross atomic charge
  VA   - Mayer's total valence
  BVA  - Mayer's bonded valence
  FA   - Mayer's free valence

  ATOM       NA         ZA         QA         VA         BVA        FA
  0 C      6.0280     6.0000    -0.0280     3.8811     3.8811     0.0000
  1 C      5.9163     6.0000     0.0837     3.7909     3.7909    -0.0000
  2 N      6.9543     7.0000     0.0457     3.5755     3.5755    -0.0000
  3 C      5.8711     6.0000     0.1289     4.3850     4.3850     0.0000
  4 N      7.0151     7.0000    -0.0151     3.2326     3.2326    -0.0000
  5 C      5.8570     6.0000     0.1430     4.3180     4.3180     0.0000
  6 O      8.1325     8.0000    -0.1325     2.3637     2.3637    -0.0000
  7 O      8.1069     8.0000    -0.1069     2.3594     2.3594    -0.0000
  8 H      0.8969     1.0000     0.1031     0.9866     0.9866    -0.0000
  9 H      0.7629     1.0000     0.2371     0.9547     0.9547    -0.0000
 10 H      0.7943     1.0000     0.2057     0.9899     0.9899     0.0000
 11 H      0.9024     1.0000     0.0976     1.0005     1.0005     0.0000
 12 H      0.7623     1.0000     0.2377     0.9548     0.9548    -0.0000

  Mayer bond orders larger than 0.100000
B(  0-C ,  1-C ) :   1.8331 B(  0-C ,  5-C ) :   0.9956 B(  0-C , 11-H ) :   0.9678 
B(  1-C ,  2-N ) :   0.9288 B(  1-C ,  8-H ) :   0.9456 B(  2-N ,  3-C ) :   0.8776 
B(  2-N ,  9-H ) :   0.8849 B(  2-N , 12-H ) :   0.8846 B(  3-C ,  4-N ) :   1.2089 
B(  3-C ,  6-O ) :   2.1959 B(  4-N ,  5-C ) :   1.0534 B(  4-N , 10-H ) :   0.8787 
B(  5-C ,  7-O ) :   2.1766 

-------
TIMINGS
-------

Total SCF time: 0 days 0 hours 0 min 6 sec 

Total time                  ....       6.948 sec
Sum of individual times     ....       6.633 sec  ( 95.5%)

Fock matrix formation       ....       5.978 sec  ( 86.0%)
  XC integration            ....       0.393 sec  (  6.6% of F)
    Basis function eval.    ....       0.098 sec  ( 25.0% of XC)
    Density eval.           ....       0.066 sec  ( 16.8% of XC)
    XC-Functional eval.     ....       0.022 sec  (  5.6% of XC)
    XC-Potential eval.      ....       0.092 sec  ( 23.5% of XC)
Diagonalization             ....       0.029 sec  (  0.4%)
Density matrix formation    ....       0.012 sec  (  0.2%)
Population analysis         ....       0.005 sec  (  0.1%)
Initial guess               ....       0.143 sec  (  2.1%)
Orbital Transformation      ....       0.000 sec  (  0.0%)
Orbital Orthonormalization  ....       0.000 sec  (  0.0%)
DIIS solution               ....       0.009 sec  (  0.1%)
SOSCF solution              ....       0.027 sec  (  0.4%)
Grid generation             ....       0.431 sec  (  6.2%)

-------------------------   --------------------
FINAL SINGLE POINT ENERGY      -414.567927107906
-------------------------   --------------------



           ************************************************************
           *        Program running with 16 parallel MPI-processes    *
           *              working on a common directory               *
           ************************************************************
------------------------------------------------------------------------------
                         ORCA SCF GRADIENT CALCULATION
------------------------------------------------------------------------------

Gradient of the Kohn-Sham DFT energy:
Kohn-Sham wavefunction type      ... RKS
Hartree-Fock exchange scaling    ...    0.200
Number of operators              ...    1
Number of atoms                  ...   13
Basis set dimensions             ...  137
Integral neglect threshold       ... 2.5e-11
Integral primitive cutoff        ... 2.5e-12

Nuclear repulsion gradient       ... done
One Electron Gradient            ... done
Pre-screening matrix             ... done
Starting the two electron gradient:
Two electron gradient done
Exchange-correlation gradient    ... done

------------------
CARTESIAN GRADIENT
------------------

   1   C   :    0.004826449    0.011280124   -0.000650809
   2   C   :   -0.050978935   -0.025784411    0.001013379
   3   N   :   -0.026464260    0.038520465   -0.004456834
   4   C   :    0.102242725   -0.004936354    0.003449433
   5   N   :    0.007787552    0.021083050   -0.001618183
   6   C   :   -0.039706621   -0.061810799    0.003377149
   7   O   :   -0.005796285   -0.019112571    0.001704419
   8   O   :    0.007981080    0.023927229   -0.001344566
   9   H   :    0.005078644    0.009569288   -0.000784990
  10   H   :   -0.005848282    0.004314678   -0.011057071
  11   H   :    0.010890870   -0.002448777    0.000621951
  12   H   :   -0.003632355   -0.000832766   -0.000036667
  13   H   :   -0.006380583    0.006230843    0.009782790

Difference to translation invariance:
           :   -0.0000000000    0.0000000000   -0.0000000000

Norm of the cartesian gradient     ...    0.1538600213
RMS gradient                       ...    0.0246373212
MAX gradient                       ...    0.1022427249

-------
TIMINGS
-------

Total SCF gradient time            ...        1.064 sec

One electron gradient       ....       0.014 sec  (  1.3%)
Prescreening matrices       ....       0.023 sec  (  2.2%)
Two electron gradient       ....       0.624 sec  ( 58.6%)
XC gradient                 ....       0.251 sec  ( 23.6%)
------------------------------------------------------------------------------
                         ORCA GEOMETRY RELAXATION STEP
------------------------------------------------------------------------------

Reading the OPT-File                    .... done
Getting information on internals        .... done
Copying old internal coords+grads       .... done
Making the new internal coordinates     .... (new redundants).... done
Validating the new internal coordinates .... (new redundants).... done
Calculating the B-matrix                .... done
Calculating the G,G- and P matrices     .... done
Transforming gradient to internals      .... done
Projecting the internal gradient        .... done
Number of atoms                         ....  13
Number of internal coordinates          ....  62
Current Energy                          ....  -414.567927108 Eh
Current gradient norm                   ....     0.153860021 Eh/bohr
Maximum allowed component of the step   ....  0.300
Current trust radius                    ....  0.300
Evaluating the initial hessian          ....  (Almloef) done
Projecting the Hessian                  .... done
Forming the augmented Hessian           .... done
Diagonalizing the augmented Hessian     .... done
Last element of RFO vector              ....  0.976435193
Lowest eigenvalues of augmented Hessian:
 -0.025776197  0.021607914  0.023793413  0.027362888  0.028443623
Length of the computed step             ....  0.221019104
The final length of the internal step   ....  0.221019104
Converting the step to cartesian space:
 Initial RMS(Int)=    0.0280694542
Transforming coordinates:
 Iter   0:  RMS(Cart)=    0.0496448559 RMS(Int)=    0.0280525909
 Iter   1:  RMS(Cart)=    0.0007333064 RMS(Int)=    0.0004353548
 Iter   2:  RMS(Cart)=    0.0000191908 RMS(Int)=    0.0000099070
 Iter   3:  RMS(Cart)=    0.0000004937 RMS(Int)=    0.0000004271
 Iter   4:  RMS(Cart)=    0.0000000153 RMS(Int)=    0.0000000119
done
Storing new coordinates                 .... done

                                .--------------------.
          ----------------------|Geometry convergence|-------------------------
          Item                value                   Tolerance       Converged
          ---------------------------------------------------------------------
          RMS gradient        0.0151375622            0.0001000000      NO
          MAX gradient        0.0803595095            0.0003000000      NO
          RMS step            0.0280694542            0.0020000000      NO
          MAX step            0.1457908725            0.0040000000      NO
          ........................................................
          Max(Bonds)      0.0771      Max(Angles)    3.31
          Max(Dihed)        0.74      Max(Improp)    0.00
          ---------------------------------------------------------------------

The optimization has not yet converged - more geometry cycles are needed


    ---------------------------------------------------------------------------
                         Redundant Internal Coordinates
                            (Angstroem and degrees)

        Definition                    Value    dE/dq     Step     New-Value
    ----------------------------------------------------------------------------
     1. B(C   1,C   0)                1.3353 -0.001280  0.0003    1.3356   
     2. B(N   2,C   1)                1.4074 -0.041618  0.0399    1.4472   
     3. B(C   3,N   2)                1.4048 -0.080360  0.0771    1.4820   
     4. B(N   4,C   3)                1.3472 -0.008646  0.0073    1.3545   
     5. B(C   5,N   4)                1.3577 -0.046429  0.0376    1.3953   
     6. B(C   5,C   0)                1.4734 -0.013038  0.0135    1.4868   
     7. B(O   6,C   3)                1.2122  0.015223 -0.0073    1.2049   
     8. B(O   7,C   5)                1.2205  0.024518 -0.0121    1.2083   
     9. B(H   8,C   1)                1.0908 -0.001135  0.0016    1.0923   
    10. B(H   9,N   2)                1.0292 -0.010277  0.0127    1.0419   
    11. B(H  10,N   4)                1.0122 -0.010423  0.0121    1.0243   
    12. B(H  11,C   0)                1.0861 -0.003591  0.0049    1.0910   
    13. B(H  12,N   2)                1.0291 -0.010280  0.0127    1.0418   
    14. A(C   5,C   0,H  11)          116.21  0.002684   -0.23    115.98   
    15. A(C   1,C   0,H  11)          122.36  0.004747   -0.52    121.84   
    16. A(C   1,C   0,C   5)          121.43 -0.007431    0.75    122.18   
    17. A(C   0,C   1,N   2)          119.57 -0.001222    0.02    119.59   
    18. A(C   0,C   1,H   8)          119.85 -0.010529    1.67    121.53   
    19. A(N   2,C   1,H   8)          120.58  0.011751   -1.69    118.88   
    20. A(C   3,N   2,H   9)          102.77 -0.004456    0.98    103.74   
    21. A(C   1,N   2,H   9)          114.78  0.006411   -1.34    113.44   
    22. A(C   3,N   2,H  12)          102.81 -0.004410    0.96    103.77   
    23. A(C   1,N   2,H  12)          114.90  0.006434   -1.36    113.54   
    24. A(C   1,N   2,C   3)          119.31 -0.002198    0.39    119.70   
    25. A(H   9,N   2,H  12)           99.64 -0.003551    0.77    100.41   
    26. A(N   2,C   3,O   6)          112.25 -0.027951    3.31    115.56   
    27. A(N   2,C   3,N   4)          120.19  0.026011   -3.11    117.09   
    28. A(N   4,C   3,O   6)          127.56  0.001939   -0.20    127.35   
    29. A(C   3,N   4,H  10)          119.14  0.011196   -1.57    117.57   
    30. A(C   3,N   4,C   5)          123.20 -0.014676    2.01    125.21   
    31. A(C   5,N   4,H  10)          117.65  0.003477   -0.43    117.22   
    32. A(C   0,C   5,N   4)          116.29 -0.000485   -0.06    116.23   
    33. A(N   4,C   5,O   7)          122.82  0.007232   -0.80    122.03   
    34. A(C   0,C   5,O   7)          120.89 -0.006747    0.85    121.74   
    35. D(N   2,C   1,C   0,C   5)     -0.13 -0.000070    0.04     -0.09   
    36. D(H   8,C   1,C   0,C   5)    179.95 -0.000053    0.02    179.97   
    37. D(H   8,C   1,C   0,H  11)     -0.05 -0.000054    0.01     -0.03   
    38. D(N   2,C   1,C   0,H  11)    179.87 -0.000071    0.04    179.91   
    39. D(C   3,N   2,C   1,H   8)   -179.40 -0.000021   -0.02   -179.42   
    40. D(H   9,N   2,C   1,C   0)   -121.88  0.002359   -0.54   -122.42   
    41. D(H  12,N   2,C   1,C   0)    123.43 -0.002241    0.40    123.83   
    42. D(C   3,N   2,C   1,C   0)      0.69  0.000015   -0.05      0.64   
    43. D(H   9,N   2,C   1,H   8)     58.04  0.002323   -0.51     57.52   
    44. D(H  12,N   2,C   1,H   8)    -56.65 -0.002277    0.42    -56.23   
    45. D(O   6,C   3,N   2,C   1)    179.71  0.000040   -0.07    179.65   
    46. D(N   4,C   3,N   2,H   9)    127.89  0.003104   -0.65    127.24   
    47. D(N   4,C   3,N   2,C   1)     -0.43 -0.000024    0.02     -0.41   
    48. D(O   6,C   3,N   2,H   9)    -51.96  0.003168   -0.74    -52.70   
    49. D(N   4,C   3,N   2,H  12)   -128.95 -0.003213    0.73   -128.22   
    50. D(O   6,C   3,N   2,H  12)     51.20 -0.003149    0.64     51.84   
    51. D(H  10,N   4,C   3,O   6)      0.30 -0.000001   -0.02      0.28   
    52. D(H  10,N   4,C   3,N   2)   -179.52  0.000113   -0.13   -179.66   
    53. D(C   5,N   4,C   3,O   6)    179.40 -0.000200    0.14    179.54   
    54. D(C   5,N   4,C   3,N   2)     -0.43 -0.000086    0.03     -0.40   
    55. D(O   7,C   5,N   4,H  10)      0.10 -0.000031   -0.00      0.10   
    56. D(C   0,C   5,N   4,H  10)   -179.94 -0.000140    0.11   -179.82   
    57. D(C   0,C   5,N   4,C   3)      0.96 -0.000013   -0.04      0.92   
    58. D(O   7,C   5,C   0,H  11)     -0.71 -0.000134    0.13     -0.58   
    59. D(O   7,C   5,C   0,C   1)    179.29 -0.000135    0.13    179.42   
    60. D(O   7,C   5,N   4,C   3)   -179.01  0.000097   -0.15   -179.16   
    61. D(N   4,C   5,C   0,H  11)    179.33 -0.000032    0.02    179.35   
    62. D(N   4,C   5,C   0,C   1)     -0.67 -0.000033    0.02     -0.66   
    ----------------------------------------------------------------------------

         *************************************************************
         *                GEOMETRY OPTIMIZATION CYCLE   2            *
         *************************************************************
---------------------------------
CARTESIAN COORDINATES (ANGSTROEM)
---------------------------------
  C      1.361251    0.522623   -0.016881
  C      1.282172   -0.805920    0.093533
  N     -0.016329   -1.444296    0.118809
  C     -1.242479   -0.619272    0.007816
  N     -1.076888    0.720451   -0.105591
  C      0.151908    1.381541   -0.118022
  O     -2.282123   -1.227875    0.030533
  O      0.231802    2.583904   -0.207279
  H      2.177423   -1.427477    0.166667
  H     -0.179894   -2.016994    0.973631
  H     -1.919980    1.297699   -0.177286
  H      2.320133    1.042601   -0.038144
  H     -0.137657   -2.169515   -0.619226

----------------------------
CARTESIAN COORDINATES (A.U.)
----------------------------
  NO LB      ZA    FRAG     MASS         X           Y           Z
   0 C     6.0000    0    12.011    2.572392    0.987614   -0.031901
   1 C     6.0000    0    12.011    2.422954   -1.522968    0.176751
   2 N     7.0000    0    14.007   -0.030858   -2.729324    0.224516
   3 C     6.0000    0    12.011   -2.347946   -1.170255    0.014771
   4 N     7.0000    0    14.007   -2.035024    1.361456   -0.199537
   5 C     6.0000    0    12.011    0.287065    2.610735   -0.223028
   6 O     8.0000    0    15.999   -4.312587   -2.320348    0.057699
   7 O     8.0000    0    15.999    0.438043    4.882871   -0.391701
   8 H     1.0000    0     1.008    4.114732   -2.697540    0.314954
   9 H     1.0000    0     1.008   -0.339950   -3.811567    1.839896
  10 H     1.0000    0     1.008   -3.628237    2.452295   -0.335022
  11 H     1.0000    0     1.008    4.384417    1.970229   -0.072082
  12 H     1.0000    0     1.008   -0.260133   -4.099790   -1.170168

--------------------------------
INTERNAL COORDINATES (ANGSTROEM)
--------------------------------
 C      0   0   0     0.000000000000     0.00000000     0.00000000
 C      1   0   0     1.335466425789     0.00000000     0.00000000
 N      2   1   0     1.447158872835   119.56512828     0.00000000
 C      3   2   1     1.482035044297   119.70142793     0.63501901
 N      4   3   2     1.354673470322   117.10852833   359.59021624
 C      5   4   3     1.395397929986   125.23452628   359.60034371
 O      4   3   2     1.204894958708   115.54846923   179.64705396
 O      6   5   4     1.208315413139   122.02671631   180.84228067
 H      2   1   3     1.092316216722   121.53910061   180.05714952
 H      3   2   1     1.041852980262   113.43320967   237.58866834
 H      5   4   3     1.024284874487   117.55424602   180.34577251
 H      1   2   3     1.091001383259   121.85624345   179.90744238
 H      3   2   1     1.041805550387   113.52796104   123.81968833

---------------------------
INTERNAL COORDINATES (A.U.)
---------------------------
 C      0   0   0     0.000000000000     0.00000000     0.00000000
 C      1   0   0     2.523665805788     0.00000000     0.00000000
 N      2   1   0     2.734733941933   119.56512828     0.00000000
 C      3   2   1     2.800640354595   119.70142793     0.63501901
 N      4   3   2     2.559961859798   117.10852833   359.59021624
 C      5   4   3     2.636919935513   125.23452628   359.60034371
 O      4   3   2     2.276921492100   115.54846923   179.64705396
 O      6   5   4     2.283385214229   122.02671631   180.84228067
 H      2   1   3     2.064178501246   121.53910061   180.05714952
 H      3   2   1     1.968816804505   113.43320967   237.58866834
 H      5   4   3     1.935617895899   117.55424602   180.34577251
 H      1   2   3     2.061693826088   121.85624345   179.90744238
 H      3   2   1     1.968727175031   113.52796104   123.81968833



           ************************************************************
           *        Program running with 16 parallel MPI-processes    *
           *              working on a common directory               *
           ************************************************************


           ************************************************************
           *        Program running with 16 parallel MPI-processes    *
           *              working on a common directory               *
           ************************************************************

Diagonalization of the overlap matrix:
Smallest eigenvalue                        ... 1.312e-03
Time for diagonalization                   ...    0.004 sec
Threshold for overlap eigenvalues          ... 1.000e-08
Number of eigenvalues below threshold      ... 0
Time for construction of square roots      ...    0.002 sec
Total time needed                          ...    0.007 sec

-------------------
DFT GRID GENERATION
-------------------

General Integration Accuracy     IntAcc      ...  4.340
Radial Grid Type                 RadialGrid  ... Gauss-Chebyshev
Angular Grid (max. acc.)         AngularGrid ... Lebedev-110
Angular grid pruning method      GridPruning ... 3 (G Style)
Weight generation scheme         WeightScheme... Becke
Basis function cutoff            BFCut       ...    1.0000e-11
Integration weight cutoff        WCut        ...    1.0000e-14
Grids for H and He will be reduced by one unit

# of grid points (after initial pruning)     ...  17430 (   0.0 sec)
# of grid points (after weights+screening)   ...  16326 (   0.0 sec)
nearest neighbour list constructed           ...    0.0 sec
Grid point re-assignment to atoms done       ...    0.0 sec
Grid point division into batches done        ...    0.0 sec
Reduced shell lists constructed in    0.0 sec

Total number of grid points                  ...    16326
Total number of batches                      ...      260
Average number of points per batch           ...       62
Average number of grid points per atom       ...     1256
Average number of shells per batch           ...    51.28 (81.39%)
Average number of basis functions per batch  ...   114.94 (83.90%)
Average number of large shells per batch     ...    43.39 (84.62%)
Average number of large basis fcns per batch ...    93.06 (80.96%)
Maximum spatial batch extension              ...   3.80,  3.66, 10.83 au
Average spatial batch extension              ...   0.12,  0.12,  0.17 au

Time for grid setup =    0.052 sec

--------------
SCF ITERATIONS
--------------
ITER       Energy         Delta-E        Max-DP      RMS-DP      [F,P]     Damp
               ***  Starting incremental Fock matrix formation  ***
  0   -414.5790358960   0.000000000000 0.00802479  0.00037747  0.0239545 0.7000
                      *** Initiating the SOSCF procedure ***
                      *** Re-Reading the Fockian *** 
                      *** Removing any level shift *** 
ITER      Energy       Delta-E        Grad      Rot      Max-DP    RMS-DP
  1   -414.58073099  -0.0016950980  0.002956  0.002956  0.022799  0.001026
               *** Restarting incremental Fock matrix formation ***
  2   -414.58464860  -0.0039176061  0.002854  0.007056  0.014167  0.000509
  3   -414.58391195   0.0007366527  0.007953  0.006413  0.012112  0.000370
  4   -414.58492649  -0.0010145392  0.000857  0.001389  0.004275  0.000099
  5   -414.58491148   0.0000150046  0.001351  0.000796  0.002587  0.000056
  6   -414.58493916  -0.0000276786  0.000118  0.000474  0.000598  0.000021
  7   -414.58493822   0.0000009416  0.000182  0.000246  0.000395  0.000014
  8   -414.58493961  -0.0000013893  0.000028  0.000101  0.000177  0.000005
  9   -414.58493958   0.0000000299  0.000051  0.000082  0.000103  0.000003
 10   -414.58493963  -0.0000000472  0.000007  0.000017  0.000037  0.000001
 11   -414.58493962   0.0000000009  0.000010  0.000009  0.000020  0.000001
                  ***Gradient check signals convergence***
              ***Rediagonalizing the Fockian in SOSCF/NRSCF***

               *****************************************************
               *                     SUCCESS                       *
               *           SCF CONVERGED AFTER  12 CYCLES          *
               *****************************************************

Setting up the final grid:

General Integration Accuracy     IntAcc      ...  4.670
Radial Grid Type                 RadialGrid  ... Gauss-Chebyshev
Angular Grid (max. acc.)         AngularGrid ... Lebedev-302
Angular grid pruning method      GridPruning ... 3 (G Style)
Weight generation scheme         WeightScheme... Becke
Basis function cutoff            BFCut       ...    1.0000e-11
Integration weight cutoff        WCut        ...    1.0000e-14
Grids for H and He will be reduced by one unit

# of grid points (after initial pruning)     ...  66666 (   0.0 sec)
# of grid points (after weights+screening)   ...  61648 (   0.0 sec)
nearest neighbour list constructed           ...    0.0 sec
Grid point re-assignment to atoms done       ...    0.0 sec
Grid point division into batches done        ...    0.3 sec
Reduced shell lists constructed in    0.3 sec

Total number of grid points                  ...    61648
Total number of batches                      ...      970
Average number of points per batch           ...       63
Average number of grid points per atom       ...     4742
Average number of shells per batch           ...    51.81 (82.23%)
Average number of basis functions per batch  ...   115.23 (84.11%)
Average number of large shells per batch     ...    41.16 (79.45%)
Average number of large basis fcns per batch ...    87.16 (75.64%)
Maximum spatial batch extension              ...   3.35,  3.74,  9.15 au
Average spatial batch extension              ...   0.08,  0.08,  0.09 au

Final grid set up in    0.3 sec
Final integration                            ... done (   0.2 sec)
Change in XC energy                          ...    -0.000139336
Integrated number of electrons               ...    58.000005047
Previous integrated no of electrons          ...    57.998045202
Total Energy       :         -414.58507896 Eh          -11281.43354 eV
  Last Energy change         ...   -2.0129e-09  Tolerance :   1.0000e-08
  Last MAX-Density change    ...    6.0306e-06  Tolerance :   1.0000e-07
             **** THE GBW FILE WAS UPDATED (Uracil_1.gbw) ****
             **** DENSITY FILE WAS UPDATED (Uracil_1.scfp) ****
             **** ENERGY FILE WAS UPDATED (Uracil_1.en.tmp) ****
             **** THE GBW FILE WAS UPDATED (Uracil_1.gbw) ****
             **** DENSITY FILE WAS UPDATED (Uracil_1.scfp) ****
Total SCF time: 0 days 0 hours 0 min 5 sec 

-------------------------   --------------------
FINAL SINGLE POINT ENERGY      -414.585078962749
-------------------------   --------------------



           ************************************************************
           *        Program running with 16 parallel MPI-processes    *
           *              working on a common directory               *
           ************************************************************
------------------------------------------------------------------------------
                         ORCA SCF GRADIENT CALCULATION
------------------------------------------------------------------------------

Gradient of the Kohn-Sham DFT energy:
Kohn-Sham wavefunction type      ... RKS
Hartree-Fock exchange scaling    ...    0.200
Number of operators              ...    1
Number of atoms                  ...   13
Basis set dimensions             ...  137
Integral neglect threshold       ... 2.5e-11
Integral primitive cutoff        ... 2.5e-12

Nuclear repulsion gradient       ... done
One Electron Gradient            ... done
Pre-screening matrix             ... done
Starting the two electron gradient:
Two electron gradient done
Exchange-correlation gradient    ... done

------------------
CARTESIAN GRADIENT
------------------

   1   C   :    0.008018413    0.007779311   -0.000386810
   2   C   :   -0.021563021   -0.015764709    0.000872608
   3   N   :   -0.005910199    0.023382811   -0.002503367
   4   C   :    0.059032214   -0.002540075    0.002061813
   5   N   :   -0.003524063    0.011607191   -0.001367917
   6   C   :   -0.018916523   -0.030340236    0.001888197
   7   O   :   -0.018416319   -0.009688510    0.000361544
   8   O   :    0.005642829    0.012619859   -0.000710443
   9   H   :    0.004868589    0.007116295   -0.000558967
  10   H   :   -0.004628317   -0.003254942   -0.001308559
  11   H   :    0.000781414    0.001800257   -0.000034775
  12   H   :   -0.000707184    0.000296081   -0.000072276
  13   H   :   -0.004677834   -0.003013334    0.001758952

Difference to translation invariance:
           :    0.0000000000   -0.0000000000   -0.0000000000

Norm of the cartesian gradient     ...    0.0844113303
RMS gradient                       ...    0.0135166305
MAX gradient                       ...    0.0590322145

-------
TIMINGS
-------

Total SCF gradient time            ...        1.030 sec

One electron gradient       ....       0.010 sec  (  1.0%)
Prescreening matrices       ....       0.010 sec  (  1.0%)
Two electron gradient       ....       0.599 sec  ( 58.1%)
XC gradient                 ....       0.246 sec  ( 23.9%)
------------------------------------------------------------------------------
                         ORCA GEOMETRY RELAXATION STEP
------------------------------------------------------------------------------

Reading the OPT-File                    .... done
Getting information on internals        .... done
Copying old internal coords+grads       .... done
Making the new internal coordinates     .... (new redundants).... done
Validating the new internal coordinates .... (new redundants).... done
Calculating the B-matrix                .... done
Calculating the G,G- and P matrices     .... done
Transforming gradient to internals      .... done
Projecting the internal gradient        .... done
Number of atoms                         ....  13
Number of internal coordinates          ....  62
Current Energy                          ....  -414.585078963 Eh
Current gradient norm                   ....     0.084411330 Eh/bohr
Maximum allowed component of the step   ....  0.300
Current trust radius                    ....  0.300
Updating the Hessian (BFGS)             .... done
Forming the augmented Hessian           .... done
Diagonalizing the augmented Hessian     .... done
Last element of RFO vector              ....  0.986180578
Lowest eigenvalues of augmented Hessian:
 -0.007953458  0.021607745  0.023793682  0.027363105  0.028443603
Length of the computed step             ....  0.167995582
The final length of the internal step   ....  0.167995582
Converting the step to cartesian space:
 Initial RMS(Int)=    0.0213354603
Transforming coordinates:
 Iter   0:  RMS(Cart)=    0.0278826641 RMS(Int)=    0.0213109824
 Iter   1:  RMS(Cart)=    0.0005453687 RMS(Int)=    0.0003271593
 Iter   2:  RMS(Cart)=    0.0000114025 RMS(Int)=    0.0000083020
 Iter   3:  RMS(Cart)=    0.0000004471 RMS(Int)=    0.0000003138
 Iter   4:  RMS(Cart)=    0.0000000126 RMS(Int)=    0.0000000087
done
Storing new coordinates                 .... done

                                .--------------------.
          ----------------------|Geometry convergence|-------------------------
          Item                value                   Tolerance       Converged
          ---------------------------------------------------------------------
          Energy change      -0.0171518548            0.0000050000      NO
          RMS gradient        0.0064134187            0.0001000000      NO
          MAX gradient        0.0276890400            0.0003000000      NO
          RMS step            0.0213354603            0.0020000000      NO
          MAX step            0.0918544983            0.0040000000      NO
          ........................................................
          Max(Bonds)      0.0486      Max(Angles)    2.72
          Max(Dihed)        1.10      Max(Improp)    0.00
          ---------------------------------------------------------------------

The optimization has not yet converged - more geometry cycles are needed


    ---------------------------------------------------------------------------
                         Redundant Internal Coordinates
                            (Angstroem and degrees)

        Definition                    Value    dE/dq     Step     New-Value
    ----------------------------------------------------------------------------
     1. B(C   1,C   0)                1.3355  0.002653 -0.0031    1.3324   
     2. B(N   2,C   1)                1.4472 -0.012523  0.0224    1.4695   
     3. B(C   3,N   2)                1.4820 -0.027689  0.0486    1.5306   
     4. B(N   4,C   3)                1.3547 -0.000294  0.0012    1.3559   
     5. B(C   5,N   4)                1.3954 -0.016081  0.0237    1.4191   
     6. B(C   5,C   0)                1.4868 -0.002174  0.0043    1.4911   
     7. B(O   6,C   3)                1.2049  0.020791 -0.0165    1.1884   
     8. B(O   7,C   5)                1.2083  0.012983 -0.0113    1.1970   
     9. B(H   8,C   1)                1.0923 -0.000097  0.0003    1.0926   
    10. B(H   9,N   2)                1.0419  0.001446 -0.0021    1.0397   
    11. B(H  10,N   4)                1.0243  0.000374  0.0001    1.0244   
    12. B(H  11,C   0)                1.0910 -0.000479  0.0014    1.0924   
    13. B(H  12,N   2)                1.0418  0.001392 -0.0020    1.0398   
    14. A(C   5,C   0,H  11)          115.99  0.001251   -0.22    115.77   
    15. A(C   1,C   0,H  11)          121.86  0.002500   -0.52    121.34   
    16. A(C   1,C   0,C   5)          122.15 -0.003750    0.74    122.89   
    17. A(C   0,C   1,N   2)          119.57 -0.000513    0.09    119.66   
    18. A(C   0,C   1,H   8)          121.54 -0.008664    2.27    123.81   
    19. A(N   2,C   1,H   8)          118.90  0.009177   -2.36    116.54   
    20. A(C   3,N   2,H   9)          103.74 -0.002069    0.75    104.50   
    21. A(C   1,N   2,H   9)          113.43  0.004050   -1.45    111.98   
    22. A(C   3,N   2,H  12)          103.78 -0.002030    0.73    104.51   
    23. A(C   1,N   2,H  12)          113.53  0.004078   -1.47    112.05   
    24. A(C   1,N   2,C   3)          119.70 -0.001809    0.37    120.07   
    25. A(H   9,N   2,H  12)          100.39 -0.003179    1.56    101.95   
    26. A(N   2,C   3,O   6)          115.55 -0.005360    1.30    116.85   
    27. A(N   2,C   3,N   4)          117.11  0.012856   -2.72    114.39   
    28. A(N   4,C   3,O   6)          127.34 -0.007496    1.42    128.76   
    29. A(C   3,N   4,H  10)          117.55  0.006958   -1.65    115.91   
    30. A(C   3,N   4,C   5)          125.23 -0.010199    2.33    127.57   
    31. A(C   5,N   4,H  10)          117.21  0.003239   -0.68    116.53   
    32. A(C   0,C   5,N   4)          116.23  0.003414   -0.81    115.42   
    33. A(N   4,C   5,O   7)          122.03  0.003768   -0.71    121.32   
    34. A(C   0,C   5,O   7)          121.74 -0.007182    1.52    123.26   
    35. D(N   2,C   1,C   0,C   5)     -0.09 -0.000037    0.00     -0.09   
    36. D(H   8,C   1,C   0,C   5)    179.97 -0.000023   -0.00    179.97   
    37. D(H   8,C   1,C   0,H  11)     -0.04 -0.000029    0.01     -0.03   
    38. D(N   2,C   1,C   0,H  11)    179.91 -0.000043    0.01    179.92   
    39. D(C   3,N   2,C   1,H   8)   -179.42 -0.000013   -0.05   -179.47   
    40. D(H   9,N   2,C   1,C   0)   -122.41  0.000729   -0.10   -122.51   
    41. D(H  12,N   2,C   1,C   0)    123.82 -0.000623   -0.08    123.74   
    42. D(C   3,N   2,C   1,C   0)      0.64  0.000011   -0.06      0.58   
    43. D(H   9,N   2,C   1,H   8)     57.53  0.000705   -0.09     57.44   
    44. D(H  12,N   2,C   1,H   8)    -56.24 -0.000647   -0.07    -56.30   
    45. D(O   6,C   3,N   2,C   1)    179.65  0.000039   -0.03    179.61   
    46. D(N   4,C   3,N   2,H   9)    127.24  0.002334   -1.01    126.23   
    47. D(N   4,C   3,N   2,C   1)     -0.41  0.000008    0.02     -0.39   
    48. D(O   6,C   3,N   2,H   9)    -52.70  0.002366   -1.06    -53.77   
    49. D(N   4,C   3,N   2,H  12)   -128.22 -0.002387    1.10   -127.12   
    50. D(O   6,C   3,N   2,H  12)     51.84 -0.002356    1.04     52.88   
    51. D(H  10,N   4,C   3,O   6)      0.28  0.000034   -0.07      0.21   
    52. D(H  10,N   4,C   3,N   2)   -179.65  0.000066   -0.13   -179.78   
[...]
     13      -0.011406  -0.116117   0.002327  -0.024739   0.000122   0.063123
     14      -0.104467   0.017402   0.026321  -0.002439   0.000227  -0.003960
     15      -0.009649   0.037726  -0.000649   0.022167   0.000589  -0.082328
     16       0.025679   0.027087   0.001439   0.017068  -0.001984  -0.007139
     17       0.269008  -0.001626   0.015825  -0.000712  -0.022883  -0.001649
     18      -0.001000  -0.082487  -0.000939   0.005738   0.000083  -0.017460
     19      -0.000732  -0.035109   0.003490   0.056721  -0.000231  -0.016366
     20      -0.019494   0.000866   0.037813  -0.004844  -0.002330   0.000876
     21       0.002715  -0.005974   0.000235  -0.001020  -0.000201   0.005034
     22      -0.002940   0.054433  -0.000518  -0.001058   0.000569   0.017694
     23      -0.072394  -0.004751  -0.005961   0.000034   0.007080  -0.001372
     24      -0.019435   0.091394  -0.010535  -0.272933  -0.014098  -0.436456
     25       0.056143   0.033069   0.029840  -0.043462   0.047285  -0.535259
     26       0.760673   0.002891   0.356982  -0.003537   0.548799   0.034486
     27       0.095206   0.233313   0.010880   0.369345   0.018957   0.274984
     28       0.158598   0.260232  -0.568673   0.040947   0.033969  -0.047042
     29       0.069286  -0.051316  -0.179211   0.004833   0.006729   0.007560
     30      -0.017807   0.348737  -0.003627  -0.284914   0.000425   0.138073
     31       0.024626   0.003151   0.003848  -0.195296  -0.000944   0.183461
     32       0.384261   0.006939   0.055199   0.009858  -0.012910  -0.012040
     33      -0.006474  -0.360020  -0.004677   0.348487   0.021700  -0.203702
     34       0.023624  -0.267869   0.021223  -0.522586  -0.069133   0.496018
     35       0.274113   0.013155   0.253484   0.052168  -0.815445  -0.047711
     36      -0.106061   0.231904   0.000907   0.370938  -0.019956   0.276673
     37      -0.138857   0.277350   0.527786   0.037309  -0.032585  -0.046592
     38       0.091175   0.012334  -0.276459   0.010013   0.011523   0.015426
                 24         25         26         27         28         29    
      0       0.005549  -0.000017  -0.110179  -0.039337   0.122976  -0.000637
      1       0.004857  -0.000125  -0.058652  -0.000873  -0.100480  -0.001141
      2      -0.000264   0.000110   0.002002  -0.000984   0.011822   0.000065
      3      -0.060263   0.001756   0.037099   0.079080  -0.082580  -0.006166
      4      -0.057748  -0.005286   0.005541   0.029276  -0.057070   0.020036
      5       0.003323  -0.060960   0.000629  -0.000452   0.002865  -0.001861
      6       0.042038  -0.000497  -0.106013  -0.139032  -0.047442   0.044034
      7      -0.008537   0.001243   0.039704  -0.007091   0.034582   0.001336
      8       0.001787   0.014039  -0.006188  -0.003056  -0.004265   0.001086
      9      -0.052007  -0.001708   0.142933  -0.065978  -0.003573   0.030936
     10       0.112769   0.005130  -0.199145   0.108170  -0.003737  -0.025732
     11      -0.011130   0.061205   0.020902  -0.011285   0.000143   0.003060
     12      -0.045598   0.000082  -0.149914   0.032716   0.047042   0.116126
     13      -0.119256  -0.000261   0.152969  -0.031303   0.020656   0.191729
     14       0.008926  -0.004633  -0.017294   0.003581  -0.000446  -0.013201
     15       0.142615   0.000257   0.338228  -0.002015  -0.106787   0.003796
     16       0.018086  -0.000323  -0.006593   0.008229  -0.004624   0.001766
     17       0.002376  -0.003630   0.009828  -0.000705  -0.002515   0.000070
     18       0.048009   0.000327  -0.059733   0.052821  -0.004772  -0.084957
     19       0.025944  -0.000853   0.003300   0.002378  -0.007979  -0.057599
     20      -0.000824  -0.010284  -0.001971   0.001337   0.000544   0.002482
     21      -0.010354  -0.000062  -0.061165   0.000880   0.008638  -0.018199
     22       0.012329   0.000051  -0.017775  -0.016415   0.025399  -0.061145
     23      -0.001349   0.000674  -0.000163   0.001429  -0.001933   0.004723
     24      -0.059534  -0.000163   0.187039  -0.036432   0.508018  -0.050910
     25      -0.059798   0.005489   0.193806  -0.125962   0.683170  -0.028519
     26       0.003738   0.050208  -0.012007   0.009846  -0.045447   0.001116
     27      -0.139398  -0.698724   0.411481   0.573794   0.195394  -0.156217
     28       0.034029   0.038820  -0.094630  -0.128362  -0.026943   0.031505
     29       0.002014  -0.049145  -0.014853   0.007644  -0.009532  -0.004192
     30      -0.286124   0.000266  -0.059538  -0.217113  -0.008154  -0.572453
     31      -0.452997  -0.001485   0.289830  -0.378040  -0.054073  -0.738363
     32       0.030889  -0.016395  -0.025448   0.026284   0.004273   0.047582
     33      -0.351723  -0.002346  -0.333754   0.067555  -0.110352   0.015141
     34       0.685989   0.007072   0.335575  -0.211916   0.354455  -0.033428
     35      -0.068002   0.080362  -0.037723   0.019830  -0.033049   0.003257
     36      -0.139128   0.699103   0.407421   0.573821   0.192972  -0.156614
     37       0.032127  -0.043602  -0.087813  -0.124814  -0.023735   0.031142
     38      -0.015160  -0.004169   0.052693   0.045176   0.024512  -0.009677
                 30         31         32         33         34         35    
      0       0.001138   0.044241  -0.029837  -0.005110   0.045609  -0.062551
      1      -0.025488  -0.474362   0.111845   0.007504   0.019989  -0.041181
      2       0.002197   0.041573  -0.010306  -0.000781  -0.000492   0.001839
      3       0.005006   0.066856  -0.008553   0.006192  -0.054718  -0.038430
      4       0.015494   0.473856  -0.041013  -0.016070   0.045959   0.040489
      5      -0.001143  -0.038682   0.003248   0.001584  -0.005377  -0.004475
      6      -0.019403   0.016378  -0.000986   0.008166   0.000629   0.001065
      7      -0.067372  -0.041056   0.005074   0.035991  -0.000444  -0.000708
      8       0.005344   0.003978  -0.000478  -0.002852   0.000048   0.000082
      9       0.003121  -0.030898  -0.039848  -0.590682   0.000655   0.000247
     10      -0.006045   0.018927  -0.026618  -0.527746  -0.000091   0.000080
     11       0.000639  -0.002528   0.001109   0.028121   0.000025  -0.000000
     12       0.000020  -0.001155   0.003508   0.064286  -0.000227   0.000294
     13       0.000986  -0.021431   0.060215   0.145854   0.000105  -0.000003
     14      -0.000087   0.001809  -0.005039  -0.010693  -0.000014   0.000008
     15       0.000695  -0.010697   0.047169   0.017915  -0.000986   0.001417
     16      -0.000049  -0.044399  -0.732208   0.061796   0.000097  -0.001394
     17       0.000032   0.003544   0.063956  -0.004753  -0.000035   0.000158
     18      -0.000719   0.021554   0.025066   0.401635   0.000026   0.000114
     19      -0.000943   0.006247   0.011828   0.245905   0.000008   0.000008
     20       0.000066   0.000088  -0.000283  -0.009476   0.000001   0.000004
     21      -0.000951  -0.008724   0.002989  -0.007942   0.000131  -0.000122
     22       0.002913   0.079829   0.476077  -0.047817  -0.000014   0.000463
     23      -0.000276  -0.007077  -0.040657   0.003868   0.000007  -0.000042
     24      -0.005027  -0.479280   0.030051   0.033090   0.630737   0.449764
     25       0.003303  -0.045738  -0.005097   0.007628  -0.501993  -0.361838
     26      -0.000433  -0.008403   0.001226   0.000154   0.059611   0.042841
     27       0.089644  -0.207602   0.001041  -0.149852  -0.004883  -0.001368
     28       0.573561  -0.148327   0.015083   0.068352  -0.004646   0.004371
     29       0.399951  -0.095187   0.013125  -0.023448   0.004105  -0.010036
     30      -0.000902   0.014844  -0.266381  -0.168995  -0.000670   0.002268
     31       0.000516  -0.000194  -0.289363  -0.173980   0.000027  -0.000860
     32      -0.000108   0.000349   0.017293   0.010544  -0.000022   0.000144
     33      -0.020313  -0.358177   0.123572  -0.005642  -0.516079   0.715884
     34       0.010312   0.136693  -0.186695   0.009881  -0.269179   0.378523
     35      -0.001472  -0.021139   0.019156  -0.001063   0.009212  -0.013192
     36       0.113770  -0.213119   0.001591  -0.152049  -0.004689  -0.001880
     37       0.495235  -0.130767   0.012693   0.071338  -0.005289   0.006101
     38      -0.488207   0.108354  -0.015520   0.003033  -0.003426   0.009120
                  36         37         38    
      0       0.001687   0.000019   0.000753
      1       0.001805   0.000058   0.000101
      2      -0.000115   0.000286   0.000013
      3      -0.001095  -0.000005  -0.000081
      4      -0.000565  -0.000091  -0.000139
      5       0.000038  -0.000896   0.000010
      6      -0.008895  -0.002318   0.000372
      7      -0.059514   0.006004  -0.001406
      8       0.003576   0.080573   0.000137
      9       0.002916   0.000064   0.000378
     10      -0.000503  -0.000058  -0.000661
     11       0.000135  -0.000509   0.000066
     12       0.000351   0.000008  -0.058748
     13       0.000098   0.000012   0.043941
     14       0.000000   0.000137  -0.005519
     15       0.000012   0.000003   0.000395
     16      -0.000721  -0.000025  -0.000712
     17       0.000063  -0.000128   0.000072
     18      -0.000938  -0.000018  -0.000549
     19      -0.000221   0.000001  -0.000348
     20      -0.000008   0.000051   0.000014
     21      -0.000001  -0.000000  -0.000123
     22       0.000331   0.000008   0.000406
     23      -0.000030   0.000014  -0.000038
     24      -0.001488   0.000078  -0.000581
     25       0.001939  -0.000129   0.000847
     26      -0.000173  -0.001331  -0.000083
     27       0.073052   0.075372   0.001288
     28       0.351740   0.385534   0.004664
     29      -0.592968  -0.600268  -0.008027
     30      -0.010533  -0.000256   0.803920
     31       0.009544   0.000266  -0.585334
     32      -0.001151   0.000786   0.074181
     33      -0.013866  -0.000244  -0.000885
     34      -0.006162  -0.000017  -0.001288
     35       0.000139   0.000955   0.000087
     36       0.044535  -0.043526   0.000882
     37       0.466626  -0.467996   0.005946
     38       0.543615  -0.507846   0.007098


-----------
IR SPECTRUM
-----------

 Mode    freq (cm**-1)   T**2         TX         TY         TZ
-------------------------------------------------------------------
   6:        70.18   13.755841  (  0.106556  -0.327052  -3.692902)
   7:       132.87    3.443512  ( -0.054465   0.153246   1.848529)
   8:       309.76    2.877255  ( -0.043042   0.147242   1.689296)
   9:       387.71   30.566874  (  4.183762  -3.587402   0.439947)
  10:       451.21   17.895485  ( -0.446755   4.190278  -0.370760)
  11:       510.36   31.720567  (  5.088409   2.413684  -0.052873)
  12:       529.57    1.961317  (  0.866650  -1.091122   0.140319)
  13:       557.09   18.504018  (  0.141880  -0.362751  -4.283958)
  14:       629.48   20.395770  ( -2.717391   3.586041  -0.389697)
  15:       670.08   23.774752  (  0.125442  -0.420775  -4.856127)
  16:       746.47   41.307581  (  0.221893  -0.569442  -6.397975)
  17:       815.67   18.262935  (  3.963839  -1.596899  -0.028750)
  18:       817.58  109.810308  ( -0.196035   0.872753  10.440794)
  19:       931.31    2.473875  ( -1.291453  -0.897510   0.022362)
  20:       940.04    0.077173  (  0.019579  -0.000421  -0.277110)
  21:       964.67    5.396176  (  2.091175  -0.999637   0.154565)
  22:       998.08    0.224259  (  0.008139  -0.027977  -0.472663)
  23:      1169.86   51.655784  ( -4.436059  -5.642848   0.368003)
  24:      1227.17   74.572527  (  0.190767   8.602675  -0.728091)
  25:      1252.52    0.934397  ( -0.018170   0.080644   0.963101)
  26:      1302.23  281.905740  ( 15.956907  -5.147956   0.883968)
  27:      1354.79   14.174622  (  3.761968  -0.104524   0.106267)
  28:      1382.40   24.751488  ( -4.352696  -2.408003   0.083922)
  29:      1441.26   48.332580  ( -4.565052  -5.233125   0.327533)
  30:      1572.45   62.044065  (  0.363376   7.838596  -0.684422)
  31:      1739.61    9.096845  ( -2.741800   1.243334  -0.183024)
  32:      1878.06  308.640979  ( -4.122968 -17.024797   1.341040)
  33:      1988.72  501.128669  (-18.340506 -12.822769   0.575414)
  34:      3216.23   18.350452  ( -0.267311  -4.260055   0.361839)
  35:      3230.47   30.897095  (  5.516611   0.674408   0.096278)
  36:      3346.51  150.528115  ( -0.490731  12.228281  -0.869738)
  37:      3381.24  141.060792  (  0.305399  -0.824933 -11.844282)
  38:      3516.69  166.940478  (  9.733261  -8.437178   1.009026)

The first frequency considered to be a vibration is 6
The total number of vibrations considered is 33


--------------------------
THERMOCHEMISTRY AT 298.15K
--------------------------

Temperature         ... 298.15 K
Pressure            ... 1.00 atm
Total Mass          ... 113.10 AMU

Throughout the following assumptions are being made:
  (1) The electronic state is orbitally nondegenerate
  (2) There are no thermally accessible electronically excited states
  (3) Hindered rotations indicated by low frequency modes are not
      treated as such but are treated as vibrations and this may
      cause some error
  (4) All equations used are the standard statistical mechanics
      equations for an ideal gas
  (5) All vibrations are strictly harmonic

freq.      70.18  E(vib)   ...       0.50 
freq.     132.87  E(vib)   ...       0.42 
freq.     309.76  E(vib)   ...       0.26 
freq.     387.71  E(vib)   ...       0.20 
freq.     451.21  E(vib)   ...       0.16 
freq.     510.36  E(vib)   ...       0.14 
freq.     529.57  E(vib)   ...       0.13 
freq.     557.09  E(vib)   ...       0.12 
freq.     629.48  E(vib)   ...       0.09 
freq.     670.08  E(vib)   ...       0.08 
freq.     746.47  E(vib)   ...       0.06 
freq.     815.67  E(vib)   ...       0.05 
freq.     817.58  E(vib)   ...       0.05 
freq.     931.31  E(vib)   ...       0.03 
freq.     940.04  E(vib)   ...       0.03 
freq.     964.67  E(vib)   ...       0.03 
freq.     998.08  E(vib)   ...       0.02 
freq.    1169.86  E(vib)   ...       0.01 
freq.    1227.17  E(vib)   ...       0.01 
freq.    1252.52  E(vib)   ...       0.01 
freq.    1302.23  E(vib)   ...       0.01 
freq.    1354.79  E(vib)   ...       0.01 
freq.    1382.40  E(vib)   ...       0.01 
freq.    1441.26  E(vib)   ...       0.00 
freq.    1572.45  E(vib)   ...       0.00 
freq.    1739.61  E(vib)   ...       0.00 
freq.    1878.06  E(vib)   ...       0.00 
freq.    1988.72  E(vib)   ...       0.00 
freq.    3216.23  E(vib)   ...       0.00 
freq.    3230.47  E(vib)   ...       0.00 
freq.    3346.51  E(vib)   ...       0.00 
freq.    3381.24  E(vib)   ...       0.00 
freq.    3516.69  E(vib)   ...       0.00 

------------
INNER ENERGY
------------

The inner energy is: U= E(el) + E(ZPE) + E(vib) + E(rot) + E(trans)
    E(el)   - is the total energy from the electronic structure calculation
              = E(kin-el) + E(nuc-el) + E(el-el) + E(nuc-nuc)
    E(ZPE)  - the the zero temperature vibrational energy from the frequency calculation
    E(vib)  - the the finite temperature correction to E(ZPE) due to population
              of excited vibrational states
    E(rot)  - is the rotational thermal energy
    E(trans)- is the translational thermal energy

Summary of contributions to the inner energy U:
Electronic energy                ...   -414.59153017 Eh
Zero point energy                ...      0.09901449 Eh      62.13 kcal/mol
Thermal vibrational correction   ...      0.00383942 Eh       2.41 kcal/mol
Thermal rotational correction    ...      0.00141627 Eh       0.89 kcal/mol
Thermal translational correction ...      0.00141627 Eh       0.89 kcal/mol
-----------------------------------------------------------------------
Total thermal energy                   -414.48584372 Eh


Summary of corrections to the electronic energy:
(perhaps to be used in another calculation)
Total thermal correction                  0.00667196 Eh       4.19 kcal/mol
Non-thermal (ZPE) correction              0.09901449 Eh      62.13 kcal/mol
-----------------------------------------------------------------------
Total correction                          0.10568645 Eh      66.32 kcal/mol


--------
ENTHALPY
--------

The enthalpy is H = U + kB*T
                kB is Boltzmann's constant
Total free energy                 ...   -414.48584372 Eh 
Thermal Enthalpy correction       ...      0.00094421 Eh       0.59 kcal/mol
-----------------------------------------------------------------------
Total Enthalpy                    ...   -414.48489951 Eh


Note: Only C1 symmetry has been detected, increase convergence thresholds 
      if your molecule has a higher symmetry. Symmetry factor of 1.0 is   
      used for the rotational entropy correction. 
 

Note: Rotational entropy computed according to Herzberg 
Infrared and Raman Spectra, Chapter V,1, Van Nostrand Reinhold, 1945 
Point Group:  C1, Symmetry Number:   1  
Rotational constants in cm-1:     0.118626     0.065538     0.042502 

Vibrational entropy computed according to the QRRHO of S. Grimme
Chem.Eur.J. 2012 18 9955


-------
ENTROPY
-------

The entropy contributions are T*S = T*(S(el)+S(vib)+S(rot)+S(trans))
     S(el)   - electronic entropy
     S(vib)  - vibrational entropy
     S(rot)  - rotational entropy
     S(trans)- translational entropy
The entropies will be listed as mutliplied by the temperature to get
units of energy

Electronic entropy                ...      0.00000000 Eh      0.00 kcal/mol
Vibrational entropy               ...      0.00626780 Eh      3.93 kcal/mol
Rotational entropy                ...      0.01329467 Eh      8.34 kcal/mol
Translational entropy             ...      0.01904554 Eh     11.95 kcal/mol
-----------------------------------------------------------------------
Final entropy term                ...      0.03860800 Eh     24.23 kcal/mol

In case the symmetry of your molecule has not been determined correctly
or in case you have a reason to use a different symmetry number we print 
out the resulting rotational entropy values for sn=1,12 :
 --------------------------------------------------------
|  sn= 1 | S(rot)=       0.01329467 Eh      8.34 kcal/mol|
|  sn= 2 | S(rot)=       0.01264021 Eh      7.93 kcal/mol|
|  sn= 3 | S(rot)=       0.01225738 Eh      7.69 kcal/mol|
|  sn= 4 | S(rot)=       0.01198575 Eh      7.52 kcal/mol|
|  sn= 5 | S(rot)=       0.01177507 Eh      7.39 kcal/mol|
|  sn= 6 | S(rot)=       0.01160292 Eh      7.28 kcal/mol|
|  sn= 7 | S(rot)=       0.01145738 Eh      7.19 kcal/mol|
|  sn= 8 | S(rot)=       0.01133130 Eh      7.11 kcal/mol|
|  sn= 9 | S(rot)=       0.01122009 Eh      7.04 kcal/mol|
|  sn=10 | S(rot)=       0.01112061 Eh      6.98 kcal/mol|
|  sn=11 | S(rot)=       0.01103062 Eh      6.92 kcal/mol|
|  sn=12 | S(rot)=       0.01094847 Eh      6.87 kcal/mol|
 --------------------------------------------------------


-------------------
GIBBS FREE ENERGY
-------------------

The Gibbs free energy is G = H - T*S

Total enthalpy                    ...   -414.48489951 Eh 
Total entropy correction          ...     -0.03860800 Eh    -24.23 kcal/mol
-----------------------------------------------------------------------
Final Gibbs free energy         ...   -414.52350752 Eh

For completeness - the Gibbs free energy minus the electronic energy
G-E(el)                           ...      0.06802265 Eh     42.68 kcal/mol


Timings for individual modules:

Sum of individual times         ...      120.904 sec (=   2.015 min)
GTO integral calculation        ...        6.016 sec (=   0.100 min)   5.0 %
SCF iterations                  ...       48.500 sec (=   0.808 min)  40.1 %
SCF Gradient evaluation         ...       11.478 sec (=   0.191 min)   9.5 %
Geometry relaxation             ...        0.492 sec (=   0.008 min)   0.4 %
Analytical frequency calculation...       54.418 sec (=   0.907 min)  45.0 %
                             ****ORCA TERMINATED NORMALLY****
TOTAL RUN TIME: 0 days 0 hours 2 minutes 1 seconds 729 msec
