13
* (null), Energy   -1000.0000000
C     1.372793    0.529851   -0.015036    0.314879    0.026602    0.007093
C     1.302724   -0.794210    0.095800    0.175010   -0.027494    0.005756
N    -0.008640   -1.463020    0.118827    0.171280   -0.387124    0.039592
C    -1.330555   -0.610659    0.008144    0.155846   -0.136309    0.014017
N    -1.080705    0.709657   -0.097399    0.573264   -0.339906    0.045646
C     0.172593    1.398876   -0.122183    0.166704   -0.069086    0.011033
O    -2.344242   -1.219751    0.031049   -0.448184    0.902366   -0.090192
O     0.201841    2.589695   -0.223265   -0.936465   -0.034891   -0.023558
H     2.156844   -1.471062    0.176152    0.208802    0.009281    0.001066
H    -0.124198   -2.019917    0.984598    0.353019   -0.379373    0.071278
H    -1.907129    1.310644   -0.173530    0.615809   -0.289807    0.046011
H     2.338608    1.040183   -0.032851    0.417664   -0.152921    0.024266
H    -0.080594   -2.162817   -0.641747    0.355076   -0.395028    0.026784
13
* Frequency(9)  387.7066
C     1.408577    0.532874   -0.014230    0.314879    0.026602    0.007093
C     1.322613   -0.797334    0.096454    0.175010   -0.027494    0.005756
N     0.010825   -1.507015    0.123327    0.171280   -0.387124    0.039592
C    -1.312844   -0.626150    0.009737    0.155846   -0.136309    0.014017
N    -1.015556    0.671028   -0.092211    0.573264   -0.339906    0.045646
C     0.191538    1.391024   -0.120929    0.166704   -0.069086    0.011033
O    -2.395176   -1.117202    0.020799   -0.448184    0.902366   -0.090192
O     0.095417    2.585730   -0.225942   -0.936465   -0.034891   -0.023558
H     2.180573   -1.470007    0.176273    0.208802    0.009281    0.001066
H    -0.084079   -2.063030    0.992699    0.353019   -0.379373    0.071278
H    -1.837145    1.277709   -0.168301    0.615809   -0.289807    0.046011
H     2.386073    1.022804   -0.030094    0.417664   -0.152921    0.024266
H    -0.040241   -2.207710   -0.638703    0.355076   -0.395028    0.026784
13
* Frequency(9)  387.7066
C     1.440484    0.535570   -0.013511    0.314879    0.026602    0.007093
C     1.340347   -0.800120    0.097038    0.175010   -0.027494    0.005756
N     0.028181   -1.546242    0.127339    0.171280   -0.387124    0.039592
C    -1.297053   -0.639962    0.011158    0.155846   -0.136309    0.014017
N    -0.957468    0.636586   -0.087586    0.573264   -0.339906    0.045646
C     0.208430    1.384024   -0.119811    0.166704   -0.069086    0.011033
O    -2.440590   -1.025765    0.011660   -0.448184    0.902366   -0.090192
O     0.000525    2.582195   -0.228329   -0.936465   -0.034891   -0.023558
H     2.201731   -1.469067    0.176381    0.208802    0.009281    0.001066
H    -0.048308   -2.101472    0.999921    0.353019   -0.379373    0.071278
H    -1.774746    1.248343   -0.163639    0.615809   -0.289807    0.046011
H     2.428395    1.007309   -0.027635    0.417664   -0.152921    0.024266
H    -0.004261   -2.247738   -0.635989    0.355076   -0.395028    0.026784
13
* Frequency(9)  387.7066
C     1.465055    0.537646   -0.012958    0.314879    0.026602    0.007093
C     1.354003   -0.802265    0.097487    0.175010   -0.027494    0.005756
N     0.041546   -1.576451    0.130428    0.171280   -0.387124    0.039592
C    -1.284891   -0.650599    0.012252    0.155846   -0.136309    0.014017
N    -0.912734    0.610062   -0.084024    0.573264   -0.339906    0.045646
C     0.221439    1.378633   -0.118950    0.166704   -0.069086    0.011033
O    -2.475564   -0.955350    0.004622   -0.448184    0.902366   -0.090192
O    -0.072551    2.579472   -0.230167   -0.936465   -0.034891   -0.023558
H     2.218024   -1.468342    0.176464    0.208802    0.009281    0.001066
H    -0.020760   -2.131076    1.005483    0.353019   -0.379373    0.071278
H    -1.726692    1.225728   -0.160048    0.615809   -0.289807    0.046011
H     2.460986    0.995375   -0.025741    0.417664   -0.152921    0.024266
H     0.023447   -2.278563   -0.633899    0.355076   -0.395028    0.026784
13
* Frequency(9)  387.7066
C     1.479628    0.538877   -0.012630    0.314879    0.026602    0.007093
C     1.362103   -0.803538    0.097753    0.175010   -0.027494    0.005756
N     0.049473   -1.594368    0.132261    0.171280   -0.387124    0.039592
C    -1.277678   -0.656907    0.012900    0.155846   -0.136309    0.014017
N    -0.886202    0.594330   -0.081912    0.573264   -0.339906    0.045646
C     0.229154    1.375435   -0.118439    0.166704   -0.069086    0.011033
O    -2.496306   -0.913587    0.000447   -0.448184    0.902366   -0.090192
O    -0.115892    2.577857   -0.231258   -0.936465   -0.034891   -0.023558
H     2.227688   -1.467913    0.176514    0.208802    0.009281    0.001066
H    -0.004422   -2.148634    1.008782    0.353019   -0.379373    0.071278
H    -1.698191    1.212315   -0.157919    0.615809   -0.289807    0.046011
H     2.480317    0.988298   -0.024618    0.417664   -0.152921    0.024266
H     0.039880   -2.296846   -0.632660    0.355076   -0.395028    0.026784
13
* Frequency(9)  387.7066
C     1.482624    0.539130   -0.012562    0.314879    0.026602    0.007093
C     1.363768   -0.803800    0.097808    0.175010   -0.027494    0.005756
N     0.051103   -1.598051    0.132637    0.171280   -0.387124    0.039592
C    -1.276196   -0.658204    0.013034    0.155846   -0.136309    0.014017
N    -0.880748    0.591096   -0.081477    0.573264   -0.339906    0.045646
C     0.230740    1.374778   -0.118334    0.166704   -0.069086    0.011033
O    -2.500571   -0.905001   -0.000411   -0.448184    0.902366   -0.090192
O    -0.124802    2.577525   -0.231482   -0.936465   -0.034891   -0.023558
H     2.229675   -1.467824    0.176524    0.208802    0.009281    0.001066
H    -0.001063   -2.152244    1.009460    0.353019   -0.379373    0.071278
H    -1.692332    1.209558   -0.157481    0.615809   -0.289807    0.046011
H     2.484291    0.986843   -0.024387    0.417664   -0.152921    0.024266
H     0.043259   -2.300605   -0.632405    0.355076   -0.395028    0.026784
13
* Frequency(9)  387.7066
C     1.473718    0.538378   -0.012763    0.314879    0.026602    0.007093
C     1.358818   -0.803022    0.097645    0.175010   -0.027494    0.005756
N     0.046259   -1.587102    0.131517    0.171280   -0.387124    0.039592
C    -1.280604   -0.654349    0.012637    0.155846   -0.136309    0.014017
N    -0.896962    0.600710   -0.082768    0.573264   -0.339906    0.045646
C     0.226025    1.376732   -0.118647    0.166704   -0.069086    0.011033
O    -2.487894   -0.930524    0.002140   -0.448184    0.902366   -0.090192
O    -0.098315    2.578512   -0.230816   -0.936465   -0.034891   -0.023558
H     2.223769   -1.468087    0.176494    0.208802    0.009281    0.001066
H    -0.011048   -2.141514    1.007444    0.353019   -0.379373    0.071278
H    -1.709749    1.217755   -0.158782    0.615809   -0.289807    0.046011
H     2.472477    0.991168   -0.025074    0.417664   -0.152921    0.024266
H     0.033216   -2.289432   -0.633162    0.355076   -0.395028    0.026784
13
* Frequency(9)  387.7066
C     1.453875    0.536701   -0.013210    0.314879    0.026602    0.007093
C     1.347790   -0.801289    0.097283    0.175010   -0.027494    0.005756
N     0.035465   -1.562706    0.129022    0.171280   -0.387124    0.039592
C    -1.290425   -0.645759    0.011754    0.155846   -0.136309    0.014017
N    -0.933087    0.622130   -0.085645    0.573264   -0.339906    0.045646
C     0.215520    1.381086   -0.119342    0.166704   -0.069086    0.011033
O    -2.459651   -0.987389    0.007824   -0.448184    0.902366   -0.090192
O    -0.039302    2.580711   -0.229331   -0.936465   -0.034891   -0.023558
H     2.210611   -1.468672    0.176426    0.208802    0.009281    0.001066
H    -0.033294   -2.117606    1.002952    0.353019   -0.379373    0.071278
H    -1.748556    1.236017   -0.161682    0.615809   -0.289807    0.046011
H     2.446157    1.000805   -0.026603    0.417664   -0.152921    0.024266
H     0.010840   -2.264538   -0.634850    0.355076   -0.395028    0.026784
13
* Frequency(9)  387.7066
C     1.425246    0.534282   -0.013855    0.314879    0.026602    0.007093
C     1.331877   -0.798789    0.096759    0.175010   -0.027494    0.005756
N     0.019892   -1.527508    0.125423    0.171280   -0.387124    0.039592
C    -1.304594   -0.633366    0.010479    0.155846   -0.136309    0.014017
N    -0.985210    0.653035   -0.089795    0.573264   -0.339906    0.045646
C     0.200363    1.387367   -0.120345    0.166704   -0.069086    0.011033
O    -2.418901   -1.069433    0.016024   -0.448184    0.902366   -0.090192
O     0.045843    2.583883   -0.227189   -0.936465   -0.034891   -0.023558
H     2.191626   -1.469516    0.176329    0.208802    0.009281    0.001066
H    -0.065391   -2.083113    0.996472    0.353019   -0.379373    0.071278
H    -1.804546    1.262367   -0.165865    0.615809   -0.289807    0.046011
H     2.408183    1.014709   -0.028809    0.417664   -0.152921    0.024266
H    -0.021444   -2.228621   -0.637286    0.355076   -0.395028    0.026784
13
* Frequency(9)  387.7066
C     1.390932    0.531384   -0.014627    0.314879    0.026602    0.007093
C     1.312806   -0.795793    0.096132    0.175010   -0.027494    0.005756
N     0.001227   -1.485322    0.121108    0.171280   -0.387124    0.039592
C    -1.321577   -0.618512    0.008952    0.155846   -0.136309    0.014017
N    -1.047680    0.690076   -0.094769    0.573264   -0.339906    0.045646
C     0.182197    1.394896   -0.121547    0.166704   -0.069086    0.011033
O    -2.370061   -1.167767    0.025853   -0.448184    0.902366   -0.090192
O     0.147893    2.587685   -0.224622   -0.936465   -0.034891   -0.023558
H     2.168872   -1.470527    0.176213    0.208802    0.009281    0.001066
H    -0.103861   -2.041772    0.988704    0.353019   -0.379373    0.071278
H    -1.871653    1.293948   -0.170879    0.615809   -0.289807    0.046011
H     2.362668    1.031373   -0.031454    0.417664   -0.152921    0.024266
H    -0.060138   -2.185574   -0.640204    0.355076   -0.395028    0.026784
13
* Frequency(9)  387.7066
C     1.354653    0.528319   -0.015445    0.314879    0.026602    0.007093
C     1.292642   -0.792626    0.095469    0.175010   -0.027494    0.005756
N    -0.018507   -1.440719    0.116546    0.171280   -0.387124    0.039592
C    -1.339533   -0.602807    0.007337    0.155846   -0.136309    0.014017
N    -1.113730    0.729238   -0.100028    0.573264   -0.339906    0.045646
C     0.162990    1.402856   -0.122818    0.166704   -0.069086    0.011033
O    -2.318423   -1.271734    0.036245   -0.448184    0.902366   -0.090192
O     0.255789    2.591705   -0.221908   -0.936465   -0.034891   -0.023558
H     2.144815   -1.471596    0.176090    0.208802    0.009281    0.001066
H    -0.144534   -1.998062    0.980492    0.353019   -0.379373    0.071278
H    -1.942604    1.327339   -0.176180    0.615809   -0.289807    0.046011
H     2.314547    1.048992   -0.034249    0.417664   -0.152921    0.024266
H    -0.101049   -2.140060   -0.643290    0.355076   -0.395028    0.026784
13
* Frequency(9)  387.7066
C     1.320340    0.525420   -0.016218    0.314879    0.026602    0.007093
C     1.273570   -0.789630    0.094841    0.175010   -0.027494    0.005756
N    -0.037172   -1.398533    0.112232    0.171280   -0.387124    0.039592
C    -1.356516   -0.587953    0.005810    0.155846   -0.136309    0.014017
N    -1.176200    0.766279   -0.105002    0.573264   -0.339906    0.045646
C     0.144823    1.410384   -0.124021    0.166704   -0.069086    0.011033
O    -2.269583   -1.370068    0.046073   -0.448184    0.902366   -0.090192
O     0.357839    2.595507   -0.219340   -0.936465   -0.034891   -0.023558
H     2.122061   -1.472608    0.175974    0.208802    0.009281    0.001066
H    -0.183004   -1.956720    0.972725    0.353019   -0.379373    0.071278
H    -2.009711    1.358920   -0.181194    0.615809   -0.289807    0.046011
H     2.269032    1.065657   -0.036894    0.417664   -0.152921    0.024266
H    -0.139743   -2.097013   -0.646209    0.355076   -0.395028    0.026784
13
* Frequency(9)  387.7066
C     1.291710    0.523001   -0.016862    0.314879    0.026602    0.007093
C     1.257658   -0.787130    0.094318    0.175010   -0.027494    0.005756
N    -0.052745   -1.363335    0.108632    0.171280   -0.387124    0.039592
C    -1.370686   -0.575559    0.004535    0.155846   -0.136309    0.014017
N    -1.228322    0.797184   -0.109153    0.573264   -0.339906    0.045646
C     0.129666    1.416666   -0.125024    0.166704   -0.069086    0.011033
O    -2.228833   -1.452113    0.054274   -0.448184    0.902366   -0.090192
O     0.442984    2.598680   -0.217198   -0.936465   -0.034891   -0.023558
H     2.103076   -1.473452    0.175877    0.208802    0.009281    0.001066
H    -0.215101   -1.922227    0.966244    0.353019   -0.379373    0.071278
H    -2.065702    1.385270   -0.185378    0.615809   -0.289807    0.046011
H     2.231058    1.079561   -0.039100    0.417664   -0.152921    0.024266
H    -0.172027   -2.061096   -0.648644    0.355076   -0.395028    0.026784
13
* Frequency(9)  387.7066
C     1.271868    0.521325   -0.017309    0.314879    0.026602    0.007093
C     1.246630   -0.785397    0.093955    0.175010   -0.027494    0.005756
N    -0.063539   -1.338939    0.106137    0.171280   -0.387124    0.039592
C    -1.380507   -0.566969    0.003652    0.155846   -0.136309    0.014017
N    -1.264448    0.818604   -0.112029    0.573264   -0.339906    0.045646
C     0.119161    1.421019   -0.125719    0.166704   -0.069086    0.011033
O    -2.200590   -1.508978    0.059957   -0.448184    0.902366   -0.090192
O     0.501998    2.600878   -0.215714   -0.936465   -0.034891   -0.023558
H     2.089918   -1.474036    0.175810    0.208802    0.009281    0.001066
H    -0.237347   -1.898320    0.961752    0.353019   -0.379373    0.071278
H    -2.104508    1.403533   -0.188277    0.615809   -0.289807    0.046011
H     2.204738    1.089197   -0.040629    0.417664   -0.152921    0.024266
H    -0.194403   -2.036202   -0.650332    0.355076   -0.395028    0.026784
13
* Frequency(9)  387.7066
C     1.262962    0.520572   -0.017510    0.314879    0.026602    0.007093
C     1.241680   -0.784620    0.093792    0.175010   -0.027494    0.005756
N    -0.068383   -1.327990    0.105017    0.171280   -0.387124    0.039592
C    -1.384915   -0.563114    0.003255    0.155846   -0.136309    0.014017
N    -1.280662    0.828218   -0.113320    0.573264   -0.339906    0.045646
C     0.114446    1.422973   -0.126031    0.166704   -0.069086    0.011033
O    -2.187913   -1.534500    0.062508   -0.448184    0.902366   -0.090192
O     0.528485    2.601865   -0.215048   -0.936465   -0.034891   -0.023558
H     2.084012   -1.474299    0.175780    0.208802    0.009281    0.001066
H    -0.247332   -1.887590    0.959736    0.353019   -0.379373    0.071278
H    -2.121926    1.411729   -0.189579    0.615809   -0.289807    0.046011
H     2.192925    1.093522   -0.041315    0.417664   -0.152921    0.024266
H    -0.204446   -2.025030   -0.651090    0.355076   -0.395028    0.026784
13
* Frequency(9)  387.7066
C     1.265957    0.520825   -0.017443    0.314879    0.026602    0.007093
C     1.243345   -0.784881    0.093847    0.175010   -0.027494    0.005756
N    -0.066754   -1.331673    0.105394    0.171280   -0.387124    0.039592
C    -1.383432   -0.564411    0.003389    0.155846   -0.136309    0.014017
N    -1.275208    0.824984   -0.112886    0.573264   -0.339906    0.045646
C     0.116032    1.422316   -0.125926    0.166704   -0.069086    0.011033
O    -2.192177   -1.525915    0.061650   -0.448184    0.902366   -0.090192
O     0.519575    2.601533   -0.215272   -0.936465   -0.034891   -0.023558
H     2.085999   -1.474211    0.175790    0.208802    0.009281    0.001066
H    -0.243973   -1.891199    0.960414    0.353019   -0.379373    0.071278
H    -2.116067    1.408972   -0.189141    0.615809   -0.289807    0.046011
H     2.196898    1.092067   -0.041085    0.417664   -0.152921    0.024266
H    -0.201067   -2.028788   -0.650835    0.355076   -0.395028    0.026784
13
* Frequency(9)  387.7066
C     1.280531    0.522056   -0.017114    0.314879    0.026602    0.007093
C     1.251444   -0.786154    0.094114    0.175010   -0.027494    0.005756
N    -0.058826   -1.349590    0.107226    0.171280   -0.387124    0.039592
C    -1.376220   -0.570720    0.004037    0.155846   -0.136309    0.014017
N    -1.248676    0.809252   -0.110773    0.573264   -0.339906    0.045646
C     0.123748    1.419119   -0.125415    0.166704   -0.069086    0.011033
O    -2.212920   -1.484152    0.057476   -0.448184    0.902366   -0.090192
O     0.476233    2.599919   -0.216362   -0.936465   -0.034891   -0.023558
H     2.095663   -1.473781    0.175839    0.208802    0.009281    0.001066
H    -0.227635   -1.908757    0.963713    0.353019   -0.379373    0.071278
H    -2.087566    1.395559   -0.187011    0.615809   -0.289807    0.046011
H     2.216229    1.084990   -0.039962    0.417664   -0.152921    0.024266
H    -0.184634   -2.047071   -0.649595    0.355076   -0.395028    0.026784
13
* Frequency(9)  387.7066
C     1.305102    0.524132   -0.016561    0.314879    0.026602    0.007093
C     1.265101   -0.788299    0.094563    0.175010   -0.027494    0.005756
N    -0.045461   -1.379799    0.110316    0.171280   -0.387124    0.039592
C    -1.364058   -0.581356    0.005131    0.155846   -0.136309    0.014017
N    -1.203942    0.782728   -0.107211    0.573264   -0.339906    0.045646
C     0.136756    1.413728   -0.124555    0.166704   -0.069086    0.011033
O    -2.247894   -1.413737    0.050438   -0.448184    0.902366   -0.090192
O     0.403157    2.597196   -0.218200   -0.936465   -0.034891   -0.023558
H     2.111956   -1.473057    0.175923    0.208802    0.009281    0.001066
H    -0.200088   -1.938361    0.969275    0.353019   -0.379373    0.071278
H    -2.039512    1.372945   -0.183421    0.615809   -0.289807    0.046011
H     2.248820    1.073057   -0.038068    0.417664   -0.152921    0.024266
H    -0.156926   -2.077896   -0.647505    0.355076   -0.395028    0.026784
13
* Frequency(9)  387.7066
C     1.337008    0.526828   -0.015842    0.314879    0.026602    0.007093
C     1.282835   -0.791085    0.095146    0.175010   -0.027494    0.005756
N    -0.028105   -1.419026    0.114328    0.171280   -0.387124    0.039592
C    -1.348267   -0.595168    0.006552    0.155846   -0.136309    0.014017
N    -1.145853    0.748286   -0.102586    0.573264   -0.339906    0.045646
C     0.153648    1.406727   -0.123437    0.166704   -0.069086    0.011033
O    -2.293308   -1.322300    0.041299   -0.448184    0.902366   -0.090192
O     0.308266    2.593660   -0.220587   -0.936465   -0.034891   -0.023558
H     2.133114   -1.472116    0.176031    0.208802    0.009281    0.001066
H    -0.164316   -1.976803    0.976498    0.353019   -0.379373    0.071278
H    -1.977112    1.343579   -0.178759    0.615809   -0.289807    0.046011
H     2.291142    1.057561   -0.035609    0.417664   -0.152921    0.024266
H    -0.120946   -2.117924   -0.644791    0.355076   -0.395028    0.026784
13
* Frequency(9)  387.7066
C     1.372793    0.529851   -0.015036    0.314879    0.026602    0.007093
C     1.302724   -0.794210    0.095800    0.175010   -0.027494    0.005756
N    -0.008640   -1.463020    0.118827    0.171280   -0.387124    0.039592
C    -1.330555   -0.610659    0.008144    0.155846   -0.136309    0.014017
N    -1.080705    0.709657   -0.097399    0.573264   -0.339906    0.045646
C     0.172593    1.398876   -0.122183    0.166704   -0.069086    0.011033
O    -2.344242   -1.219751    0.031049   -0.448184    0.902366   -0.090192
O     0.201841    2.589695   -0.223265   -0.936465   -0.034891   -0.023558
H     2.156844   -1.471062    0.176152    0.208802    0.009281    0.001066
H    -0.124198   -2.019917    0.984598    0.353019   -0.379373    0.071278
H    -1.907129    1.310644   -0.173530    0.615809   -0.289807    0.046011
H     2.338608    1.040183   -0.032851    0.417664   -0.152921    0.024266
H    -0.080594   -2.162817   -0.641747    0.355076   -0.395028    0.026784
