13
* (null), Energy   -1000.0000000
C     1.628522    0.403282    0.009825   -0.000187   -0.000134    0.000344
C     1.558257   -0.920826    0.121541    0.003568   -0.010540   -0.121757
N     0.246846   -1.589915    0.143551   -0.001270    0.002543    0.027888
C    -1.074947   -0.737408    0.033678   -0.003411    0.010770    0.122387
N    -0.825093    0.582903   -0.073451    0.000064   -0.000958   -0.009262
C     0.428005    1.271956   -0.097784    0.000739   -0.000588   -0.007313
O    -2.088804   -1.345922    0.058464    0.000749   -0.001694   -0.020546
O     0.457572    2.462843   -0.197982   -0.000118    0.000092    0.001346
H     2.412149   -1.597989    0.202997   -0.001484    0.009709    0.099806
H     0.131582   -2.147641    1.008616   -1.395544    0.076543   -0.098623
H    -1.651708    1.183769   -0.147738   -0.000023   -0.003978   -0.032566
H     2.594425    0.913409   -0.007422   -0.004981    0.014303    0.159813
H     0.175864   -2.288698   -0.617572    1.400318   -0.087295   -0.006985
13
* Frequency(25) 1253.5086
C     1.628501    0.403266    0.009864   -0.000187   -0.000134    0.000344
C     1.558663   -0.922024    0.107704    0.003568   -0.010540   -0.121757
N     0.246701   -1.589626    0.146720   -0.001270    0.002543    0.027888
C    -1.075335   -0.736184    0.047586   -0.003411    0.010770    0.122387
N    -0.825086    0.582795   -0.074504    0.000064   -0.000958   -0.009262
C     0.428089    1.271889   -0.098615    0.000739   -0.000588   -0.007313
O    -2.088719   -1.346114    0.056129    0.000749   -0.001694   -0.020546
O     0.457559    2.462853   -0.197829   -0.000118    0.000092    0.001346
H     2.411980   -1.596885    0.214339   -0.001484    0.009709    0.099806
H    -0.027014   -2.138943    0.997408   -1.395544    0.076543   -0.098623
H    -1.651711    1.183317   -0.151439   -0.000023   -0.003978   -0.032566
H     2.593859    0.915035    0.010740   -0.004981    0.014303    0.159813
H     0.335003   -2.298619   -0.618366    1.400318   -0.087295   -0.006985
13
* Frequency(25) 1253.5086
C     1.628482    0.403253    0.009899   -0.000187   -0.000134    0.000344
C     1.559024   -0.923092    0.095367    0.003568   -0.010540   -0.121757
N     0.246573   -1.589368    0.149546   -0.001270    0.002543    0.027888
C    -1.075681   -0.735093    0.059988   -0.003411    0.010770    0.122387
N    -0.825079    0.582697   -0.075442    0.000064   -0.000958   -0.009262
C     0.428164    1.271829   -0.099356    0.000739   -0.000588   -0.007313
O    -2.088643   -1.346286    0.054047    0.000749   -0.001694   -0.020546
O     0.457547    2.462862   -0.197693   -0.000118    0.000092    0.001346
H     2.411829   -1.595902    0.224452   -0.001484    0.009709    0.099806
H    -0.168424   -2.131186    0.987414   -1.395544    0.076543   -0.098623
H    -1.651713    1.182914   -0.154739   -0.000023   -0.003978   -0.032566
H     2.593354    0.916484    0.026934   -0.004981    0.014303    0.159813
H     0.476897   -2.307465   -0.619074    1.400318   -0.087295   -0.006985
13
* Frequency(25) 1253.5086
C     1.628467    0.403242    0.009926   -0.000187   -0.000134    0.000344
C     1.559303   -0.923914    0.085866    0.003568   -0.010540   -0.121757
N     0.246473   -1.589169    0.151722   -0.001270    0.002543    0.027888
C    -1.075947   -0.734252    0.069538   -0.003411    0.010770    0.122387
N    -0.825074    0.582623   -0.076165    0.000064   -0.000958   -0.009262
C     0.428222    1.271784   -0.099927    0.000739   -0.000588   -0.007313
O    -2.088585   -1.346418    0.052444    0.000749   -0.001694   -0.020546
O     0.457537    2.462869   -0.197588   -0.000118    0.000092    0.001346
H     2.411714   -1.595144    0.232241   -0.001484    0.009709    0.099806
H    -0.277324   -2.125214    0.979718   -1.395544    0.076543   -0.098623
H    -1.651715    1.182604   -0.157280   -0.000023   -0.003978   -0.032566
H     2.592965    0.917600    0.039404   -0.004981    0.014303    0.159813
H     0.586169   -2.314277   -0.619619    1.400318   -0.087295   -0.006985
13
* Frequency(25) 1253.5086
C     1.628459    0.403236    0.009942   -0.000187   -0.000134    0.000344
C     1.559468   -0.924402    0.080231    0.003568   -0.010540   -0.121757
N     0.246415   -1.589052    0.153013   -0.001270    0.002543    0.027888
C    -1.076105   -0.733754    0.075202   -0.003411    0.010770    0.122387
N    -0.825071    0.582578   -0.076593    0.000064   -0.000958   -0.009262
C     0.428256    1.271756   -0.100265    0.000739   -0.000588   -0.007313
O    -2.088550   -1.346497    0.051493    0.000749   -0.001694   -0.020546
O     0.457532    2.462874   -0.197525   -0.000118    0.000092    0.001346
H     2.411645   -1.594695    0.236860   -0.001484    0.009709    0.099806
H    -0.341912   -2.121671    0.975154   -1.395544    0.076543   -0.098623
H    -1.651716    1.182420   -0.158787   -0.000023   -0.003978   -0.032566
H     2.592735    0.918262    0.046801   -0.004981    0.014303    0.159813
H     0.650978   -2.318317   -0.619942    1.400318   -0.087295   -0.006985
13
* Frequency(25) 1253.5086
C     1.628457    0.403235    0.009945   -0.000187   -0.000134    0.000344
C     1.559502   -0.924502    0.079072    0.003568   -0.010540   -0.121757
N     0.246403   -1.589027    0.153279   -0.001270    0.002543    0.027888
C    -1.076137   -0.733651    0.076367   -0.003411    0.010770    0.122387
N    -0.825070    0.582569   -0.076682    0.000064   -0.000958   -0.009262
C     0.428263    1.271751   -0.100335    0.000739   -0.000588   -0.007313
O    -2.088543   -1.346513    0.051298    0.000749   -0.001694   -0.020546
O     0.457531    2.462875   -0.197513   -0.000118    0.000092    0.001346
H     2.411631   -1.594602    0.237809   -0.001484    0.009709    0.099806
H    -0.355190   -2.120943    0.974215   -1.395544    0.076543   -0.098623
H    -1.651716    1.182382   -0.159097   -0.000023   -0.003978   -0.032566
H     2.592687    0.918398    0.048321   -0.004981    0.014303    0.159813
H     0.664301   -2.319147   -0.620009    1.400318   -0.087295   -0.006985
13
* Frequency(25) 1253.5086
C     1.628462    0.403238    0.009936   -0.000187   -0.000134    0.000344
C     1.559401   -0.924204    0.082516    0.003568   -0.010540   -0.121757
N     0.246439   -1.589099    0.152490   -0.001270    0.002543    0.027888
C    -1.076041   -0.733956    0.072905   -0.003411    0.010770    0.122387
N    -0.825072    0.582596   -0.076420    0.000064   -0.000958   -0.009262
C     0.428242    1.271767   -0.100128    0.000739   -0.000588   -0.007313
O    -2.088564   -1.346465    0.051879    0.000749   -0.001694   -0.020546
O     0.457534    2.462872   -0.197551   -0.000118    0.000092    0.001346
H     2.411673   -1.594877    0.234986   -0.001484    0.009709    0.099806
H    -0.315718   -2.123108    0.977005   -1.395544    0.076543   -0.098623
H    -1.651715    1.182494   -0.158176   -0.000023   -0.003978   -0.032566
H     2.592828    0.917993    0.043801   -0.004981    0.014303    0.159813
H     0.624695   -2.316678   -0.619811    1.400318   -0.087295   -0.006985
13
* Frequency(25) 1253.5086
C     1.628474    0.403247    0.009914   -0.000187   -0.000134    0.000344
C     1.559176   -0.923540    0.090189    0.003568   -0.010540   -0.121757
N     0.246519   -1.589260    0.150732   -0.001270    0.002543    0.027888
C    -1.075826   -0.734635    0.065193   -0.003411    0.010770    0.122387
N    -0.825076    0.582657   -0.075836    0.000064   -0.000958   -0.009262
C     0.428195    1.271804   -0.099667    0.000739   -0.000588   -0.007313
O    -2.088611   -1.346358    0.053174    0.000749   -0.001694   -0.020546
O     0.457542    2.462866   -0.197636   -0.000118    0.000092    0.001346
H     2.411766   -1.595489    0.228697   -0.001484    0.009709    0.099806
H    -0.227775   -2.127931    0.983220   -1.395544    0.076543   -0.098623
H    -1.651714    1.182745   -0.156124   -0.000023   -0.003978   -0.032566
H     2.593142    0.917092    0.033730   -0.004981    0.014303    0.159813
H     0.536451   -2.311177   -0.619371    1.400318   -0.087295   -0.006985
13
* Frequency(25) 1253.5086
C     1.628491    0.403259    0.009883   -0.000187   -0.000134    0.000344
C     1.558852   -0.922582    0.101259    0.003568   -0.010540   -0.121757
N     0.246634   -1.589491    0.148197   -0.001270    0.002543    0.027888
C    -1.075516   -0.735614    0.054065   -0.003411    0.010770    0.122387
N    -0.825082    0.582744   -0.074994    0.000064   -0.000958   -0.009262
C     0.428128    1.271858   -0.099002    0.000739   -0.000588   -0.007313
O    -2.088679   -1.346204    0.055042    0.000749   -0.001694   -0.020546
O     0.457552    2.462858   -0.197758   -0.000118    0.000092    0.001346
H     2.411901   -1.596372    0.219622   -0.001484    0.009709    0.099806
H    -0.100890   -2.134891    0.992187   -1.395544    0.076543   -0.098623
H    -1.651712    1.183107   -0.153163   -0.000023   -0.003978   -0.032566
H     2.593595    0.915792    0.019200   -0.004981    0.014303    0.159813
H     0.409131   -2.303240   -0.618736    1.400318   -0.087295   -0.006985
13
* Frequency(25) 1253.5086
C     1.628511    0.403274    0.009845   -0.000187   -0.000134    0.000344
C     1.558463   -0.921433    0.114527    0.003568   -0.010540   -0.121757
N     0.246772   -1.589768    0.145158   -0.001270    0.002543    0.027888
C    -1.075144   -0.736787    0.040728   -0.003411    0.010770    0.122387
N    -0.825089    0.582848   -0.073985    0.000064   -0.000958   -0.009262
C     0.428048    1.271922   -0.098205    0.000739   -0.000588   -0.007313
O    -2.088761   -1.346019    0.057281    0.000749   -0.001694   -0.020546
O     0.457565    2.462848   -0.197905   -0.000118    0.000092    0.001346
H     2.412063   -1.597430    0.208746   -0.001484    0.009709    0.099806
H     0.051188   -2.143232    1.002934   -1.395544    0.076543   -0.098623
H    -1.651709    1.183540   -0.149614   -0.000023   -0.003978   -0.032566
H     2.594138    0.914233    0.001784   -0.004981    0.014303    0.159813
H     0.256534   -2.293727   -0.617975    1.400318   -0.087295   -0.006985
13
* Frequency(25) 1253.5086
C     1.628533    0.403289    0.009806   -0.000187   -0.000134    0.000344
C     1.558052   -0.920219    0.128556    0.003568   -0.010540   -0.121757
N     0.246919   -1.590061    0.141944   -0.001270    0.002543    0.027888
C    -1.074751   -0.738028    0.026627   -0.003411    0.010770    0.122387
N    -0.825097    0.582959   -0.072917    0.000064   -0.000958   -0.009262
C     0.427962    1.271990   -0.097363    0.000739   -0.000588   -0.007313
O    -2.088847   -1.345824    0.059648    0.000749   -0.001694   -0.020546
O     0.457579    2.462837   -0.198060   -0.000118    0.000092    0.001346
H     2.412234   -1.598548    0.197247   -0.001484    0.009709    0.099806
H     0.211977   -2.152051    1.014297   -1.395544    0.076543   -0.098623
H    -1.651707    1.183999   -0.145862   -0.000023   -0.003978   -0.032566
H     2.594712    0.912585   -0.016629   -0.004981    0.014303    0.159813
H     0.095194   -2.283669   -0.617170    1.400318   -0.087295   -0.006985
13
* Frequency(25) 1253.5086
C     1.628554    0.403304    0.009768   -0.000187   -0.000134    0.000344
C     1.557663   -0.919070    0.141824    0.003568   -0.010540   -0.121757
N     0.247057   -1.590338    0.138905   -0.001270    0.002543    0.027888
C    -1.074379   -0.739202    0.013290   -0.003411    0.010770    0.122387
N    -0.825104    0.583063   -0.071908    0.000064   -0.000958   -0.009262
C     0.427882    1.272054   -0.096566    0.000739   -0.000588   -0.007313
O    -2.088929   -1.345639    0.061887    0.000749   -0.001694   -0.020546
O     0.457592    2.462827   -0.198206   -0.000118    0.000092    0.001346
H     2.412396   -1.599606    0.186371   -0.001484    0.009709    0.099806
H     0.364054   -2.160392    1.025044   -1.395544    0.076543   -0.098623
H    -1.651704    1.184432   -0.142313   -0.000023   -0.003978   -0.032566
H     2.595255    0.911027   -0.034044   -0.004981    0.014303    0.159813
H    -0.057403   -2.274157   -0.616409    1.400318   -0.087295   -0.006985
13
* Frequency(25) 1253.5086
C     1.628571    0.403316    0.009737   -0.000187   -0.000134    0.000344
C     1.557338   -0.918112    0.152894    0.003568   -0.010540   -0.121757
N     0.247173   -1.590569    0.136370   -0.001270    0.002543    0.027888
C    -1.074069   -0.740181    0.002163   -0.003411    0.010770    0.122387
N    -0.825109    0.583150   -0.071066    0.000064   -0.000958   -0.009262
C     0.427815    1.272107   -0.095901    0.000739   -0.000588   -0.007313
O    -2.088997   -1.345485    0.063755    0.000749   -0.001694   -0.020546
O     0.457603    2.462819   -0.198329   -0.000118    0.000092    0.001346
H     2.412531   -1.600489    0.177296   -0.001484    0.009709    0.099806
H     0.490940   -2.167352    1.034011   -1.395544    0.076543   -0.098623
H    -1.651702    1.184794   -0.139352   -0.000023   -0.003978   -0.032566
H     2.595708    0.909726   -0.048574   -0.004981    0.014303    0.159813
H    -0.184722   -2.266220   -0.615773    1.400318   -0.087295   -0.006985
13
* Frequency(25) 1253.5086
C     1.628582    0.403325    0.009715   -0.000187   -0.000134    0.000344
C     1.557113   -0.917447    0.160567    0.003568   -0.010540   -0.121757
N     0.247253   -1.590730    0.134612   -0.001270    0.002543    0.027888
C    -1.073854   -0.740860   -0.005550   -0.003411    0.010770    0.122387
N    -0.825113    0.583210   -0.070482    0.000064   -0.000958   -0.009262
C     0.427768    1.272144   -0.095440    0.000739   -0.000588   -0.007313
O    -2.089044   -1.345379    0.065050    0.000749   -0.001694   -0.020546
O     0.457610    2.462813   -0.198414   -0.000118    0.000092    0.001346
H     2.412624   -1.601101    0.171007   -0.001484    0.009709    0.099806
H     0.578883   -2.172175    1.040226   -1.395544    0.076543   -0.098623
H    -1.651701    1.185045   -0.137300   -0.000023   -0.003978   -0.032566
H     2.596021    0.908825   -0.058645   -0.004981    0.014303    0.159813
H    -0.272967   -2.260719   -0.615333    1.400318   -0.087295   -0.006985
13
* Frequency(25) 1253.5086
C     1.628588    0.403328    0.009705   -0.000187   -0.000134    0.000344
C     1.557012   -0.917149    0.164011    0.003568   -0.010540   -0.121757
N     0.247289   -1.590802    0.133824   -0.001270    0.002543    0.027888
C    -1.073758   -0.741165   -0.009011   -0.003411    0.010770    0.122387
N    -0.825115    0.583238   -0.070220    0.000064   -0.000958   -0.009262
C     0.427747    1.272161   -0.095233    0.000739   -0.000588   -0.007313
O    -2.089066   -1.345331    0.065631    0.000749   -0.001694   -0.020546
O     0.457613    2.462811   -0.198452   -0.000118    0.000092    0.001346
H     2.412666   -1.601375    0.168184   -0.001484    0.009709    0.099806
H     0.618354   -2.174340    1.043016   -1.395544    0.076543   -0.098623
H    -1.651700    1.185157   -0.136379   -0.000023   -0.003978   -0.032566
H     2.596162    0.908420   -0.063165   -0.004981    0.014303    0.159813
H    -0.312573   -2.258249   -0.615136    1.400318   -0.087295   -0.006985
13
* Frequency(25) 1253.5086
C     1.628586    0.403327    0.009709   -0.000187   -0.000134    0.000344
C     1.557046   -0.917250    0.162852    0.003568   -0.010540   -0.121757
N     0.247276   -1.590777    0.134089   -0.001270    0.002543    0.027888
C    -1.073790   -0.741062   -0.007847   -0.003411    0.010770    0.122387
N    -0.825115    0.583228   -0.070309    0.000064   -0.000958   -0.009262
C     0.427754    1.272155   -0.095303    0.000739   -0.000588   -0.007313
O    -2.089058   -1.345347    0.065435    0.000749   -0.001694   -0.020546
O     0.457612    2.462812   -0.198439   -0.000118    0.000092    0.001346
H     2.412652   -1.601283    0.169134   -0.001484    0.009709    0.099806
H     0.605077   -2.173612    1.042078   -1.395544    0.076543   -0.098623
H    -1.651700    1.185119   -0.136689   -0.000023   -0.003978   -0.032566
H     2.596115    0.908556   -0.061645   -0.004981    0.014303    0.159813
H    -0.299250   -2.259080   -0.615202    1.400318   -0.087295   -0.006985
13
* Frequency(25) 1253.5086
C     1.628577    0.403321    0.009725   -0.000187   -0.000134    0.000344
C     1.557212   -0.917737    0.157217    0.003568   -0.010540   -0.121757
N     0.247218   -1.590660    0.135380   -0.001270    0.002543    0.027888
C    -1.073948   -0.740564   -0.002183   -0.003411    0.010770    0.122387
N    -0.825112    0.583184   -0.070737    0.000064   -0.000958   -0.009262
C     0.427788    1.272128   -0.095641    0.000739   -0.000588   -0.007313
O    -2.089024   -1.345425    0.064484    0.000749   -0.001694   -0.020546
O     0.457607    2.462816   -0.198377   -0.000118    0.000092    0.001346
H     2.412584   -1.600834    0.173753   -0.001484    0.009709    0.099806
H     0.540488   -2.170069    1.037513   -1.395544    0.076543   -0.098623
H    -1.651701    1.184935   -0.138196   -0.000023   -0.003978   -0.032566
H     2.595884    0.909218   -0.054248   -0.004981    0.014303    0.159813
H    -0.234441   -2.263120   -0.615525    1.400318   -0.087295   -0.006985
13
* Frequency(25) 1253.5086
C     1.628563    0.403310    0.009751   -0.000187   -0.000134    0.000344
C     1.557490   -0.918560    0.147716    0.003568   -0.010540   -0.121757
N     0.247119   -1.590461    0.137556   -0.001270    0.002543    0.027888
C    -1.074214   -0.739723    0.007368   -0.003411    0.010770    0.122387
N    -0.825107    0.583109   -0.071460    0.000064   -0.000958   -0.009262
C     0.427846    1.272082   -0.096212    0.000739   -0.000588   -0.007313
O    -2.088965   -1.345557    0.062881    0.000749   -0.001694   -0.020546
O     0.457598    2.462823   -0.198272   -0.000118    0.000092    0.001346
H     2.412468   -1.600076    0.181541   -0.001484    0.009709    0.099806
H     0.431589   -2.164096    1.029817   -1.395544    0.076543   -0.098623
H    -1.651703    1.184625   -0.140737   -0.000023   -0.003978   -0.032566
H     2.595496    0.910334   -0.041778   -0.004981    0.014303    0.159813
H    -0.125168   -2.269932   -0.616071    1.400318   -0.087295   -0.006985
13
* Frequency(25) 1253.5086
C     1.628544    0.403297    0.009786   -0.000187   -0.000134    0.000344
C     1.557852   -0.919628    0.135378    0.003568   -0.010540   -0.121757
N     0.246990   -1.590204    0.140382   -0.001270    0.002543    0.027888
C    -1.074560   -0.738632    0.019769   -0.003411    0.010770    0.122387
N    -0.825100    0.583012   -0.072398    0.000064   -0.000958   -0.009262
C     0.427921    1.272023   -0.096953    0.000739   -0.000588   -0.007313
O    -2.088889   -1.345729    0.060799    0.000749   -0.001694   -0.020546
O     0.457586    2.462832   -0.198135   -0.000118    0.000092    0.001346
H     2.412317   -1.599092    0.191654   -0.001484    0.009709    0.099806
H     0.290179   -2.156340    1.019824   -1.395544    0.076543   -0.098623
H    -1.651705    1.184222   -0.144037   -0.000023   -0.003978   -0.032566
H     2.594991    0.911784   -0.025584   -0.004981    0.014303    0.159813
H     0.016725   -2.278778   -0.616778    1.400318   -0.087295   -0.006985
13
* Frequency(25) 1253.5086
C     1.628522    0.403282    0.009825   -0.000187   -0.000134    0.000344
C     1.558257   -0.920826    0.121541    0.003568   -0.010540   -0.121757
N     0.246846   -1.589915    0.143551   -0.001270    0.002543    0.027888
C    -1.074947   -0.737408    0.033678   -0.003411    0.010770    0.122387
N    -0.825093    0.582903   -0.073451    0.000064   -0.000958   -0.009262
C     0.428005    1.271956   -0.097784    0.000739   -0.000588   -0.007313
O    -2.088804   -1.345922    0.058464    0.000749   -0.001694   -0.020546
O     0.457572    2.462843   -0.197982   -0.000118    0.000092    0.001346
H     2.412149   -1.597989    0.202997   -0.001484    0.009709    0.099806
H     0.131582   -2.147641    1.008616   -1.395544    0.076543   -0.098623
H    -1.651708    1.183769   -0.147738   -0.000023   -0.003978   -0.032566
H     2.594425    0.913409   -0.007422   -0.004981    0.014303    0.159813
H     0.175864   -2.288698   -0.617572    1.400318   -0.087295   -0.006985
