13
* (null), Energy   -1000.0000000
C     1.628522    0.403282    0.009825   -0.009911    0.030909    0.360381
C     1.558257   -0.920826    0.121541   -0.004734    0.014930    0.174159
N     0.246846   -1.589915    0.143551    0.012930   -0.041260   -0.475478
C    -1.074947   -0.737408    0.033678   -0.000034    0.001054    0.014077
N    -0.825093    0.582903   -0.073451    0.004695   -0.014174   -0.163339
C     0.428005    1.271956   -0.097784    0.000514   -0.001759   -0.021675
O    -2.088804   -1.345922    0.058464   -0.010040    0.031984    0.366880
O     0.457572    2.462843   -0.197982    0.003830   -0.012737   -0.151116
H     2.412149   -1.597989    0.202997   -0.011046    0.035257    0.409430
H     0.131582   -2.147641    1.008616   -0.099075   -0.688016   -0.911828
H    -1.651708    1.183769   -0.147738    0.002737   -0.008589   -0.096332
H     2.594425    0.913409   -0.007422   -0.021434    0.067008    0.782089
H     0.175864   -2.288698   -0.617572    0.151262    0.521325   -1.009945
13
* Frequency(6)   69.2242
C     1.627396    0.406794    0.050781   -0.009911    0.030909    0.360381
C     1.557719   -0.919129    0.141334   -0.004734    0.014930    0.174159
N     0.248315   -1.594604    0.089515    0.012930   -0.041260   -0.475478
C    -1.074951   -0.737288    0.035278   -0.000034    0.001054    0.014077
N    -0.824559    0.581293   -0.092014    0.004695   -0.014174   -0.163339
C     0.428063    1.271756   -0.100247    0.000514   -0.001759   -0.021675
O    -2.089945   -1.342287    0.100158   -0.010040    0.031984    0.366880
O     0.458007    2.461395   -0.215156    0.003830   -0.012737   -0.151116
H     2.410893   -1.593982    0.249526   -0.011046    0.035257    0.409430
H     0.120323   -2.225831    0.904991   -0.099075   -0.688016   -0.911828
H    -1.651397    1.182793   -0.158686    0.002737   -0.008589   -0.096332
H     2.591989    0.921024    0.081458   -0.021434    0.067008    0.782089
H     0.193054   -2.229452   -0.732347    0.151262    0.521325   -1.009945
13
* Frequency(6)   69.2242
C     1.626392    0.409926    0.087298   -0.009911    0.030909    0.360381
C     1.557239   -0.917616    0.158981   -0.004734    0.014930    0.174159
N     0.249625   -1.598784    0.041335    0.012930   -0.041260   -0.475478
C    -1.074955   -0.737181    0.036704   -0.000034    0.001054    0.014077
N    -0.824084    0.579856   -0.108565    0.004695   -0.014174   -0.163339
C     0.428115    1.271578   -0.102444    0.000514   -0.001759   -0.021675
O    -2.090963   -1.339046    0.137334   -0.010040    0.031984    0.366880
O     0.458395    2.460105   -0.230468    0.003830   -0.012737   -0.151116
H     2.409774   -1.590409    0.291014   -0.011046    0.035257    0.409430
H     0.110284   -2.295547    0.812596   -0.099075   -0.688016   -0.911828
H    -1.651120    1.181923   -0.168447    0.002737   -0.008589   -0.096332
H     2.589817    0.927814    0.160707   -0.021434    0.067008    0.782089
H     0.208382   -2.176627   -0.834685    0.151262    0.521325   -1.009945
13
* Frequency(6)   69.2242
C     1.625618    0.412338    0.115420   -0.009911    0.030909    0.360381
C     1.556870   -0.916451    0.172571   -0.004734    0.014930    0.174159
N     0.250634   -1.602004    0.004232    0.012930   -0.041260   -0.475478
C    -1.074958   -0.737099    0.037803   -0.000034    0.001054    0.014077
N    -0.823717    0.578750   -0.121311    0.004695   -0.014174   -0.163339
C     0.428156    1.271441   -0.104135    0.000514   -0.001759   -0.021675
O    -2.091746   -1.336550    0.165963   -0.010040    0.031984    0.366880
O     0.458694    2.459111   -0.242260    0.003830   -0.012737   -0.151116
H     2.408912   -1.587658    0.322963   -0.011046    0.035257    0.409430
H     0.102553   -2.349236    0.741443   -0.099075   -0.688016   -0.911828
H    -1.650906    1.181253   -0.175964    0.002737   -0.008589   -0.096332
H     2.588144    0.933043    0.221737   -0.021434    0.067008    0.782089
H     0.220185   -2.135946   -0.913494    0.151262    0.521325   -1.009945
13
* Frequency(6)   69.2242
C     1.625159    0.413769    0.132099   -0.009911    0.030909    0.360381
C     1.556651   -0.915760    0.180632   -0.004734    0.014930    0.174159
N     0.251233   -1.603914   -0.017774    0.012930   -0.041260   -0.475478
C    -1.074959   -0.737050    0.038454   -0.000034    0.001054    0.014077
N    -0.823500    0.578094   -0.128870    0.004695   -0.014174   -0.163339
C     0.428179    1.271359   -0.105138    0.000514   -0.001759   -0.021675
O    -2.092211   -1.335070    0.182943   -0.010040    0.031984    0.366880
O     0.458872    2.458521   -0.249254    0.003830   -0.012737   -0.151116
H     2.408401   -1.586026    0.341912   -0.011046    0.035257    0.409430
H     0.097967   -2.381078    0.699241   -0.099075   -0.688016   -0.911828
H    -1.650779    1.180855   -0.180423    0.002737   -0.008589   -0.096332
H     2.587152    0.936144    0.257933   -0.021434    0.067008    0.782089
H     0.227186   -2.111818   -0.960237    0.151262    0.521325   -1.009945
13
* Frequency(6)   69.2242
C     1.625065    0.414063    0.135528   -0.009911    0.030909    0.360381
C     1.556606   -0.915618    0.182289   -0.004734    0.014930    0.174159
N     0.251356   -1.604306   -0.022298    0.012930   -0.041260   -0.475478
C    -1.074959   -0.737040    0.038588   -0.000034    0.001054    0.014077
N    -0.823455    0.577960   -0.130424    0.004695   -0.014174   -0.163339
C     0.428184    1.271342   -0.105345    0.000514   -0.001759   -0.021675
O    -2.092306   -1.334765    0.186434   -0.010040    0.031984    0.366880
O     0.458908    2.458400   -0.250692    0.003830   -0.012737   -0.151116
H     2.408296   -1.585691    0.345808   -0.011046    0.035257    0.409430
H     0.097025   -2.387624    0.690566   -0.099075   -0.688016   -0.911828
H    -1.650753    1.180774   -0.181339    0.002737   -0.008589   -0.096332
H     2.586948    0.936782    0.265374   -0.021434    0.067008    0.782089
H     0.228625   -2.106858   -0.969846    0.151262    0.521325   -1.009945
13
* Frequency(6)   69.2242
C     1.625346    0.413189    0.125335   -0.009911    0.030909    0.360381
C     1.556740   -0.916040    0.177363   -0.004734    0.014930    0.174159
N     0.250990   -1.603139   -0.008850    0.012930   -0.041260   -0.475478
C    -1.074958   -0.737070    0.038190   -0.000034    0.001054    0.014077
N    -0.823588    0.578360   -0.125805    0.004695   -0.014174   -0.163339
C     0.428170    1.271392   -0.104731    0.000514   -0.001759   -0.021675
O    -2.092022   -1.335670    0.176057   -0.010040    0.031984    0.366880
O     0.458800    2.458760   -0.246418    0.003830   -0.012737   -0.151116
H     2.408608   -1.586688    0.334227   -0.011046    0.035257    0.409430
H     0.099827   -2.368165    0.716356   -0.099075   -0.688016   -0.911828
H    -1.650831    1.181016   -0.178614    0.002737   -0.008589   -0.096332
H     2.587555    0.934887    0.243254   -0.021434    0.067008    0.782089
H     0.224347   -2.121603   -0.941281    0.151262    0.521325   -1.009945
13
* Frequency(6)   69.2242
C     1.625970    0.411241    0.102625   -0.009911    0.030909    0.360381
C     1.557038   -0.916981    0.166388   -0.004734    0.014930    0.174159
N     0.250175   -1.600539    0.021114    0.012930   -0.041260   -0.475478
C    -1.074956   -0.737136    0.037303   -0.000034    0.001054    0.014077
N    -0.823884    0.579254   -0.115511    0.004695   -0.014174   -0.163339
C     0.428137    1.271503   -0.103366    0.000514   -0.001759   -0.021675
O    -2.091390   -1.337686    0.152937   -0.010040    0.031984    0.366880
O     0.458558    2.459563   -0.236895    0.003830   -0.012737   -0.151116
H     2.409304   -1.588910    0.308426   -0.011046    0.035257    0.409430
H     0.106070   -2.324808    0.773817   -0.099075   -0.688016   -0.911828
H    -1.651003    1.181558   -0.172544    0.002737   -0.008589   -0.096332
H     2.588905    0.930664    0.193969   -0.021434    0.067008    0.782089
H     0.214815   -2.154455   -0.877636    0.151262    0.521325   -1.009945
13
* Frequency(6)   69.2242
C     1.626871    0.408431    0.069858   -0.009911    0.030909    0.360381
C     1.557469   -0.918339    0.150553   -0.004734    0.014930    0.174159
N     0.249000   -1.596788    0.064345    0.012930   -0.041260   -0.475478
C    -1.074953   -0.737232    0.036023   -0.000034    0.001054    0.014077
N    -0.824311    0.580542   -0.100660    0.004695   -0.014174   -0.163339
C     0.428091    1.271663   -0.101395    0.000514   -0.001759   -0.021675
O    -2.090477   -1.340594    0.119580   -0.010040    0.031984    0.366880
O     0.458210    2.460721   -0.223155    0.003830   -0.012737   -0.151116
H     2.410309   -1.592116    0.271200   -0.011046    0.035257    0.409430
H     0.115078   -2.262252    0.856722   -0.099075   -0.688016   -0.911828
H    -1.651252    1.182339   -0.163785    0.002737   -0.008589   -0.096332
H     2.590854    0.924571    0.122860   -0.021434    0.067008    0.782089
H     0.201062   -2.201855   -0.785810    0.151262    0.521325   -1.009945
13
* Frequency(6)   69.2242
C     1.627951    0.405062    0.030586   -0.009911    0.030909    0.360381
C     1.557984   -0.919966    0.131574   -0.004734    0.014930    0.174159
N     0.247590   -1.592291    0.116160    0.012930   -0.041260   -0.475478
C    -1.074949   -0.737347    0.034489   -0.000034    0.001054    0.014077
N    -0.824822    0.582087   -0.082861    0.004695   -0.014174   -0.163339
C     0.428035    1.271855   -0.099033    0.000514   -0.001759   -0.021675
O    -2.089383   -1.344079    0.079599   -0.010040    0.031984    0.366880
O     0.457793    2.462109   -0.206688    0.003830   -0.012737   -0.151116
H     2.411512   -1.595958    0.226583   -0.011046    0.035257    0.409430
H     0.125875   -2.187277    0.956087   -0.099075   -0.688016   -0.911828
H    -1.651550    1.183275   -0.153288    0.002737   -0.008589   -0.096332
H     2.593190    0.917269    0.037633   -0.021434    0.067008    0.782089
H     0.184578   -2.258666   -0.675753    0.151262    0.521325   -1.009945
13
* Frequency(6)   69.2242
C     1.629093    0.401501   -0.010936   -0.009911    0.030909    0.360381
C     1.558530   -0.921686    0.111508   -0.004734    0.014930    0.174159
N     0.246101   -1.587538    0.170942    0.012930   -0.041260   -0.475478
C    -1.074945   -0.737469    0.032867   -0.000034    0.001054    0.014077
N    -0.825363    0.583720   -0.064041    0.004695   -0.014174   -0.163339
C     0.427975    1.272057   -0.096535    0.000514   -0.001759   -0.021675
O    -2.088226   -1.347764    0.037329   -0.010040    0.031984    0.366880
O     0.457351    2.463576   -0.189277    0.003830   -0.012737   -0.151116
H     2.412785   -1.600020    0.179410   -0.011046    0.035257    0.409430
H     0.137290   -2.108006    1.061144   -0.099075   -0.688016   -0.911828
H    -1.651866    1.184264   -0.142189    0.002737   -0.008589   -0.096332
H     2.595660    0.909549   -0.052477   -0.021434    0.067008    0.782089
H     0.167150   -2.318731   -0.559391    0.151262    0.521325   -1.009945
13
* Frequency(6)   69.2242
C     1.630173    0.398133   -0.050208   -0.009911    0.030909    0.360381
C     1.559046   -0.923313    0.092530   -0.004734    0.014930    0.174159
N     0.244692   -1.583041    0.222757    0.012930   -0.041260   -0.475478
C    -1.074942   -0.737584    0.031333   -0.000034    0.001054    0.014077
N    -0.825875    0.585265   -0.046242    0.004695   -0.014174   -0.163339
C     0.427919    1.272249   -0.094173    0.000514   -0.001759   -0.021675
O    -2.087132   -1.351250   -0.002651   -0.010040    0.031984    0.366880
O     0.456934    2.464964   -0.172809    0.003830   -0.012737   -0.151116
H     2.413989   -1.603862    0.134793   -0.011046    0.035257    0.409430
H     0.148086   -2.033031    1.160509   -0.099075   -0.688016   -0.911828
H    -1.652164    1.185200   -0.131691    0.002737   -0.008589   -0.096332
H     2.597995    0.902247   -0.137704   -0.021434    0.067008    0.782089
H     0.150667   -2.375542   -0.449334    0.151262    0.521325   -1.009945
13
* Frequency(6)   69.2242
C     1.631074    0.395322   -0.082974   -0.009911    0.030909    0.360381
C     1.559476   -0.924670    0.076695   -0.004734    0.014930    0.174159
N     0.243516   -1.579290    0.265988    0.012930   -0.041260   -0.475478
C    -1.074939   -0.737679    0.030053   -0.000034    0.001054    0.014077
N    -0.826302    0.586553   -0.031391    0.004695   -0.014174   -0.163339
C     0.427873    1.272409   -0.092203    0.000514   -0.001759   -0.021675
O    -2.086219   -1.354158   -0.036008   -0.010040    0.031984    0.366880
O     0.456586    2.466122   -0.159069    0.003830   -0.012737   -0.151116
H     2.414993   -1.607068    0.097567   -0.011046    0.035257    0.409430
H     0.157094   -1.970475    1.243414   -0.099075   -0.688016   -0.911828
H    -1.652413    1.185981   -0.122932    0.002737   -0.008589   -0.096332
H     2.599944    0.896154   -0.208813   -0.021434    0.067008    0.782089
H     0.136914   -2.422941   -0.357508    0.151262    0.521325   -1.009945
13
* Frequency(6)   69.2242
C     1.631699    0.393374   -0.105684   -0.009911    0.030909    0.360381
C     1.559775   -0.925611    0.065720   -0.004734    0.014930    0.174159
N     0.242701   -1.576690    0.295952    0.012930   -0.041260   -0.475478
C    -1.074936   -0.737746    0.029166   -0.000034    0.001054    0.014077
N    -0.826598    0.587446   -0.021097    0.004695   -0.014174   -0.163339
C     0.427840    1.272519   -0.090837    0.000514   -0.001759   -0.021675
O    -2.085586   -1.356173   -0.059128   -0.010040    0.031984    0.366880
O     0.456345    2.466925   -0.149546    0.003830   -0.012737   -0.151116
H     2.415689   -1.609289    0.071766   -0.011046    0.035257    0.409430
H     0.163338   -1.927118    1.300875   -0.099075   -0.688016   -0.911828
H    -1.652585    1.186522   -0.116862    0.002737   -0.008589   -0.096332
H     2.601295    0.891932   -0.258098   -0.021434    0.067008    0.782089
H     0.127381   -2.455794   -0.293864    0.151262    0.521325   -1.009945
13
* Frequency(6)   69.2242
C     1.631979    0.392500   -0.115877   -0.009911    0.030909    0.360381
C     1.559908   -0.926033    0.060794   -0.004734    0.014930    0.174159
N     0.242336   -1.575523    0.309400    0.012930   -0.041260   -0.475478
C    -1.074935   -0.737776    0.028768   -0.000034    0.001054    0.014077
N    -0.826731    0.587847   -0.016478    0.004695   -0.014174   -0.163339
C     0.427826    1.272569   -0.090224    0.000514   -0.001759   -0.021675
O    -2.085302   -1.357078   -0.069505   -0.010040    0.031984    0.366880
O     0.456236    2.467285   -0.145272    0.003830   -0.012737   -0.151116
H     2.416001   -1.610287    0.060186   -0.011046    0.035257    0.409430
H     0.166140   -1.907658    1.326665   -0.099075   -0.688016   -0.911828
H    -1.652663    1.186765   -0.114137    0.002737   -0.008589   -0.096332
H     2.601901    0.890037   -0.280218   -0.021434    0.067008    0.782089
H     0.123103   -2.470539   -0.265299    0.151262    0.521325   -1.009945
13
* Frequency(6)   69.2242
C     1.631885    0.392794   -0.112448   -0.009911    0.030909    0.360381
C     1.559863   -0.925891    0.062451   -0.004734    0.014930    0.174159
N     0.242459   -1.575915    0.304876    0.012930   -0.041260   -0.475478
C    -1.074936   -0.737766    0.028901   -0.000034    0.001054    0.014077
N    -0.826686    0.587712   -0.018032    0.004695   -0.014174   -0.163339
C     0.427830    1.272552   -0.090430    0.000514   -0.001759   -0.021675
O    -2.085398   -1.356773   -0.066014   -0.010040    0.031984    0.366880
O     0.456273    2.467164   -0.146710    0.003830   -0.012737   -0.151116
H     2.415896   -1.609951    0.064081   -0.011046    0.035257    0.409430
H     0.165197   -1.914204    1.317990   -0.099075   -0.688016   -0.911828
H    -1.652637    1.186684   -0.115054    0.002737   -0.008589   -0.096332
H     2.601697    0.890674   -0.272777   -0.021434    0.067008    0.782089
H     0.124542   -2.465579   -0.274908    0.151262    0.521325   -1.009945
13
* Frequency(6)   69.2242
C     1.631426    0.394225   -0.095769   -0.009911    0.030909    0.360381
C     1.559644   -0.925200    0.070511   -0.004734    0.014930    0.174159
N     0.243057   -1.577825    0.282870    0.012930   -0.041260   -0.475478
C    -1.074937   -0.737717    0.029553   -0.000034    0.001054    0.014077
N    -0.826469    0.587056   -0.025591    0.004695   -0.014174   -0.163339
C     0.427854    1.272471   -0.091433    0.000514   -0.001759   -0.021675
O    -2.085862   -1.355293   -0.049034   -0.010040    0.031984    0.366880
O     0.456450    2.466575   -0.153704    0.003830   -0.012737   -0.151116
H     2.415385   -1.608319    0.083030   -0.011046    0.035257    0.409430
H     0.160612   -1.946047    1.275789   -0.099075   -0.688016   -0.911828
H    -1.652510    1.186286   -0.119512    0.002737   -0.008589   -0.096332
H     2.600705    0.893775   -0.236581   -0.021434    0.067008    0.782089
H     0.131543   -2.441451   -0.321650    0.151262    0.521325   -1.009945
13
* Frequency(6)   69.2242
C     1.630653    0.396637   -0.067647   -0.009911    0.030909    0.360381
C     1.559275   -0.924035    0.084102   -0.004734    0.014930    0.174159
N     0.244066   -1.581045    0.245767    0.012930   -0.041260   -0.475478
C    -1.074940   -0.737635    0.030652   -0.000034    0.001054    0.014077
N    -0.826102    0.585950   -0.038337    0.004695   -0.014174   -0.163339
C     0.427894    1.272334   -0.093124    0.000514   -0.001759   -0.021675
O    -2.086646   -1.352797   -0.020405   -0.010040    0.031984    0.366880
O     0.456749    2.465581   -0.165496    0.003830   -0.012737   -0.151116
H     2.414523   -1.605568    0.114980   -0.011046    0.035257    0.409430
H     0.152881   -1.999736    1.204635   -0.099075   -0.688016   -0.911828
H    -1.652296    1.185616   -0.127029    0.002737   -0.008589   -0.096332
H     2.599033    0.899004   -0.175551   -0.021434    0.067008    0.782089
H     0.143347   -2.400770   -0.400460    0.151262    0.521325   -1.009945
13
* Frequency(6)   69.2242
C     1.629649    0.399769   -0.031130   -0.009911    0.030909    0.360381
C     1.558795   -0.922522    0.101749   -0.004734    0.014930    0.174159
N     0.245376   -1.585226    0.197587    0.012930   -0.041260   -0.475478
C    -1.074944   -0.737528    0.032078   -0.000034    0.001054    0.014077
N    -0.825626    0.584514   -0.054888    0.004695   -0.014174   -0.163339
C     0.427946    1.272156   -0.095321    0.000514   -0.001759   -0.021675
O    -2.087663   -1.349556    0.016770   -0.010040    0.031984    0.366880
O     0.457137    2.464290   -0.180809    0.003830   -0.012737   -0.151116
H     2.413404   -1.601996    0.156467   -0.011046    0.035257    0.409430
H     0.142842   -2.069452    1.112240   -0.099075   -0.688016   -0.911828
H    -1.652019    1.184746   -0.136790    0.002737   -0.008589   -0.096332
H     2.596861    0.905794   -0.096302   -0.021434    0.067008    0.782089
H     0.158674   -2.347944   -0.502797    0.151262    0.521325   -1.009945
13
* Frequency(6)   69.2242
C     1.628522    0.403282    0.009825   -0.009911    0.030909    0.360381
C     1.558257   -0.920826    0.121541   -0.004734    0.014930    0.174159
N     0.246846   -1.589915    0.143551    0.012930   -0.041260   -0.475478
C    -1.074947   -0.737408    0.033678   -0.000034    0.001054    0.014077
N    -0.825093    0.582903   -0.073451    0.004695   -0.014174   -0.163339
C     0.428005    1.271956   -0.097784    0.000514   -0.001759   -0.021675
O    -2.088804   -1.345922    0.058464   -0.010040    0.031984    0.366880
O     0.457572    2.462843   -0.197982    0.003830   -0.012737   -0.151116
H     2.412149   -1.597989    0.202997   -0.011046    0.035257    0.409430
H     0.131582   -2.147641    1.008616   -0.099075   -0.688016   -0.911828
H    -1.651708    1.183769   -0.147738    0.002737   -0.008589   -0.096332
H     2.594425    0.913409   -0.007422   -0.021434    0.067008    0.782089
H     0.175864   -2.288698   -0.617572    0.151262    0.521325   -1.009945
