13
* (null), Energy   -1000.0000000
C     1.628522    0.403282    0.009825   -0.002091   -0.000280    0.004511
C     1.558257   -0.920826    0.121541   -0.007616    0.024763    0.293365
N     0.246846   -1.589915    0.143551    0.010879   -0.031851   -0.382787
C    -1.074947   -0.737408    0.033678   -0.010379    0.031259    0.361184
N    -0.825093    0.582903   -0.073451    0.002997   -0.005145   -0.054315
C     0.428005    1.271956   -0.097784    0.000913   -0.002441   -0.029543
O    -2.088804   -1.345922    0.058464    0.001723   -0.006819   -0.076290
O     0.457572    2.462843   -0.197982   -0.000359    0.001182    0.011401
H     2.412149   -1.597989    0.202997    0.019696   -0.060793   -0.704164
H     0.131582   -2.147641    1.008616   -0.018577    1.140123    0.360911
H    -1.651708    1.183769   -0.147738    0.005133   -0.008426   -0.103744
H     2.594425    0.913409   -0.007422    0.011360   -0.043207   -0.503190
H     0.175864   -2.288698   -0.617572   -0.003632   -1.059258    0.552872
13
* Frequency(20)  939.0238
C     1.628285    0.403250    0.010338   -0.002091   -0.000280    0.004511
C     1.557392   -0.918012    0.154881   -0.007616    0.024763    0.293365
N     0.248082   -1.593534    0.100049    0.010879   -0.031851   -0.382787
C    -1.076127   -0.733856    0.074725   -0.010379    0.031259    0.361184
N    -0.824752    0.582319   -0.079624    0.002997   -0.005145   -0.054315
C     0.428109    1.271678   -0.101141    0.000913   -0.002441   -0.029543
O    -2.088608   -1.346697    0.049794    0.001723   -0.006819   -0.076290
O     0.457531    2.462977   -0.196687   -0.000359    0.001182    0.011401
H     2.414387   -1.604898    0.122972    0.019696   -0.060793   -0.704164
H     0.129471   -2.018072    1.049631   -0.018577    1.140123    0.360911
H    -1.651125    1.182812   -0.159528    0.005133   -0.008426   -0.103744
H     2.595716    0.908499   -0.064607    0.011360   -0.043207   -0.503190
H     0.175451   -2.409078   -0.554741   -0.003632   -1.059258    0.552872
13
* Frequency(20)  939.0238
C     1.628073    0.403221    0.010795   -0.002091   -0.000280    0.004511
C     1.556620   -0.915502    0.184607   -0.007616    0.024763    0.293365
N     0.249184   -1.596762    0.061262    0.010879   -0.031851   -0.382787
C    -1.077179   -0.730688    0.111323   -0.010379    0.031259    0.361184
N    -0.824449    0.581797   -0.085127    0.002997   -0.005145   -0.054315
C     0.428201    1.271431   -0.104135    0.000913   -0.002441   -0.029543
O    -2.088434   -1.347388    0.042064    0.001723   -0.006819   -0.076290
O     0.457495    2.463097   -0.195531   -0.000359    0.001182    0.011401
H     2.416383   -1.611058    0.051619    0.019696   -0.060793   -0.704164
H     0.127589   -1.902544    1.086202   -0.018577    1.140123    0.360911
H    -1.650604    1.181958   -0.170040    0.005133   -0.008426   -0.103744
H     2.596867    0.904121   -0.115595    0.011360   -0.043207   -0.503190
H     0.175083   -2.516412   -0.498719   -0.003632   -1.059258    0.552872
13
* Frequency(20)  939.0238
C     1.627910    0.403199    0.011147   -0.002091   -0.000280    0.004511
C     1.556026   -0.913570    0.207500   -0.007616    0.024763    0.293365
N     0.250033   -1.599247    0.031391    0.010879   -0.031851   -0.382787
C    -1.077988   -0.728249    0.139508   -0.010379    0.031259    0.361184
N    -0.824215    0.581396   -0.089366    0.002997   -0.005145   -0.054315
C     0.428272    1.271241   -0.106440    0.000913   -0.002441   -0.029543
O    -2.088299   -1.347920    0.036111    0.001723   -0.006819   -0.076290
O     0.457467    2.463189   -0.194642   -0.000359    0.001182    0.011401
H     2.417920   -1.615802   -0.003329    0.019696   -0.060793   -0.704164
H     0.126139   -1.813576    1.114366   -0.018577    1.140123    0.360911
H    -1.650204    1.181301   -0.178136    0.005133   -0.008426   -0.103744
H     2.597753    0.900749   -0.154861    0.011360   -0.043207   -0.503190
H     0.174800   -2.599070   -0.455576   -0.003632   -1.059258    0.552872
13
* Frequency(20)  939.0238
C     1.627813    0.403187    0.011356   -0.002091   -0.000280    0.004511
C     1.555673   -0.912424    0.221077   -0.007616    0.024763    0.293365
N     0.250537   -1.600721    0.013675    0.010879   -0.031851   -0.382787
C    -1.078469   -0.726802    0.156224   -0.010379    0.031259    0.361184
N    -0.824076    0.581158   -0.091880    0.002997   -0.005145   -0.054315
C     0.428315    1.271128   -0.107808    0.000913   -0.002441   -0.029543
O    -2.088220   -1.348235    0.032580    0.001723   -0.006819   -0.076290
O     0.457450    2.463244   -0.194114   -0.000359    0.001182    0.011401
H     2.418831   -1.618615   -0.035919    0.019696   -0.060793   -0.704164
H     0.125279   -1.760809    1.131069   -0.018577    1.140123    0.360911
H    -1.649966    1.180911   -0.182937    0.005133   -0.008426   -0.103744
H     2.598279    0.898749   -0.178149    0.011360   -0.043207   -0.503190
H     0.174632   -2.648094   -0.429988   -0.003632   -1.059258    0.552872
13
* Frequency(20)  939.0238
C     1.627793    0.403184    0.011399   -0.002091   -0.000280    0.004511
C     1.555601   -0.912188    0.223868   -0.007616    0.024763    0.293365
N     0.250640   -1.601024    0.010033    0.010879   -0.031851   -0.382787
C    -1.078568   -0.726505    0.159661   -0.010379    0.031259    0.361184
N    -0.824047    0.581109   -0.092396    0.002997   -0.005145   -0.054315
C     0.428323    1.271105   -0.108089    0.000913   -0.002441   -0.029543
O    -2.088203   -1.348300    0.031854    0.001723   -0.006819   -0.076290
O     0.457447    2.463255   -0.194005   -0.000359    0.001182    0.011401
H     2.419019   -1.619194   -0.042619    0.019696   -0.060793   -0.704164
H     0.125103   -1.749961    1.134503   -0.018577    1.140123    0.360911
H    -1.649917    1.180830   -0.183924    0.005133   -0.008426   -0.103744
H     2.598387    0.898338   -0.182937    0.011360   -0.043207   -0.503190
H     0.174597   -2.658172   -0.424728   -0.003632   -1.059258    0.552872
13
* Frequency(20)  939.0238
C     1.627852    0.403192    0.011271   -0.002091   -0.000280    0.004511
C     1.555816   -0.912889    0.215571   -0.007616    0.024763    0.293365
N     0.250333   -1.600123    0.020860    0.010879   -0.031851   -0.382787
C    -1.078274   -0.727389    0.149445   -0.010379    0.031259    0.361184
N    -0.824132    0.581254   -0.090860    0.002997   -0.005145   -0.054315
C     0.428298    1.271174   -0.107253    0.000913   -0.002441   -0.029543
O    -2.088252   -1.348107    0.034012    0.001723   -0.006819   -0.076290
O     0.457457    2.463222   -0.194328   -0.000359    0.001182    0.011401
H     2.418461   -1.617474   -0.022702    0.019696   -0.060793   -0.704164
H     0.125628   -1.782208    1.124295   -0.018577    1.140123    0.360911
H    -1.650063    1.181069   -0.180990    0.005133   -0.008426   -0.103744
H     2.598066    0.899560   -0.168705    0.011360   -0.043207   -0.503190
H     0.174700   -2.628212   -0.440365   -0.003632   -1.059258    0.552872
13
* Frequency(20)  939.0238
C     1.627984    0.403209    0.010987   -0.002091   -0.000280    0.004511
C     1.556296   -0.914449    0.197084   -0.007616    0.024763    0.293365
N     0.249647   -1.598116    0.044982    0.010879   -0.031851   -0.382787
C    -1.077620   -0.729359    0.126684   -0.010379    0.031259    0.361184
N    -0.824321    0.581578   -0.087437    0.002997   -0.005145   -0.054315
C     0.428240    1.271327   -0.105391    0.000913   -0.002441   -0.029543
O    -2.088361   -1.347678    0.038819    0.001723   -0.006819   -0.076290
O     0.457480    2.463147   -0.195046   -0.000359    0.001182    0.011401
H     2.417220   -1.613643    0.021672    0.019696   -0.060793   -0.704164
H     0.126799   -1.854056    1.101552   -0.018577    1.140123    0.360911
H    -1.650386    1.181600   -0.174452    0.005133   -0.008426   -0.103744
H     2.597350    0.902283   -0.136995    0.011360   -0.043207   -0.503190
H     0.174929   -2.561461   -0.475206   -0.003632   -1.059258    0.552872
13
* Frequency(20)  939.0238
C     1.628174    0.403235    0.010577   -0.002091   -0.000280    0.004511
C     1.556988   -0.916701    0.170411   -0.007616    0.024763    0.293365
N     0.248658   -1.595220    0.079786    0.010879   -0.031851   -0.382787
C    -1.076676   -0.732201    0.093844   -0.010379    0.031259    0.361184
N    -0.824594    0.582046   -0.082499    0.002997   -0.005145   -0.054315
C     0.428157    1.271549   -0.102705    0.000913   -0.002441   -0.029543
O    -2.088517   -1.347058    0.045756    0.001723   -0.006819   -0.076290
O     0.457512    2.463040   -0.196083   -0.000359    0.001182    0.011401
H     2.415430   -1.608116    0.085696    0.019696   -0.060793   -0.704164
H     0.128488   -1.957718    1.068737   -0.018577    1.140123    0.360911
H    -1.650853    1.182366   -0.165020    0.005133   -0.008426   -0.103744
H     2.596317    0.906212   -0.091244    0.011360   -0.043207   -0.503190
H     0.175259   -2.465151   -0.525474   -0.003632   -1.059258    0.552872
13
* Frequency(20)  939.0238
C     1.628402    0.403265    0.010085   -0.002091   -0.000280    0.004511
C     1.557818   -0.919399    0.138442   -0.007616    0.024763    0.293365
N     0.247472   -1.591749    0.121499    0.010879   -0.031851   -0.382787
C    -1.075545   -0.735607    0.054485   -0.010379    0.031259    0.361184
N    -0.824920    0.582607   -0.076580    0.002997   -0.005145   -0.054315
C     0.428058    1.271815   -0.099486    0.000913   -0.002441   -0.029543
O    -2.088705   -1.346314    0.054069    0.001723   -0.006819   -0.076290
O     0.457551    2.462911   -0.197325   -0.000359    0.001182    0.011401
H     2.413283   -1.601491    0.162431    0.019696   -0.060793   -0.704164
H     0.130512   -2.081961    1.029407   -0.018577    1.140123    0.360911
H    -1.651412    1.183284   -0.153715    0.005133   -0.008426   -0.103744
H     2.595079    0.910920   -0.036410    0.011360   -0.043207   -0.503190
H     0.175655   -2.349720   -0.585722   -0.003632   -1.059258    0.552872
13
* Frequency(20)  939.0238
C     1.628643    0.403298    0.009565   -0.002091   -0.000280    0.004511
C     1.558696   -0.922252    0.104641   -0.007616    0.024763    0.293365
N     0.246219   -1.588080    0.165603    0.010879   -0.031851   -0.382787
C    -1.074350   -0.739209    0.012871   -0.010379    0.031259    0.361184
N    -0.825265    0.583200   -0.070322    0.002997   -0.005145   -0.054315
C     0.427952    1.272096   -0.096082    0.000913   -0.002441   -0.029543
O    -2.088903   -1.345529    0.062859    0.001723   -0.006819   -0.076290
O     0.457593    2.462775   -0.198639   -0.000359    0.001182    0.011401
H     2.411014   -1.594487    0.243562    0.019696   -0.060793   -0.704164
H     0.132652   -2.213322    0.987824   -0.018577    1.140123    0.360911
H    -1.652004    1.184255   -0.141762    0.005133   -0.008426   -0.103744
H     2.593770    0.915898    0.021566    0.011360   -0.043207   -0.503190
H     0.176073   -2.227677   -0.649422   -0.003632   -1.059258    0.552872
13
* Frequency(20)  939.0238
C     1.628871    0.403328    0.009074   -0.002091   -0.000280    0.004511
C     1.559526   -0.924951    0.072672   -0.007616    0.024763    0.293365
N     0.245033   -1.584609    0.207316    0.010879   -0.031851   -0.382787
C    -1.073219   -0.742615   -0.026489   -0.010379    0.031259    0.361184
N    -0.825592    0.583761   -0.064403    0.002997   -0.005145   -0.054315
C     0.427853    1.272362   -0.092863    0.000913   -0.002441   -0.029543
O    -2.089091   -1.344786    0.071173    0.001723   -0.006819   -0.076290
O     0.457632    2.462646   -0.199881   -0.000359    0.001182    0.011401
H     2.408868   -1.587862    0.320297    0.019696   -0.060793   -0.704164
H     0.134677   -2.337565    0.948494   -0.018577    1.140123    0.360911
H    -1.652563    1.185173   -0.130456    0.005133   -0.008426   -0.103744
H     2.592533    0.920607    0.076400    0.011360   -0.043207   -0.503190
H     0.176469   -2.112246   -0.709670   -0.003632   -1.059258    0.552872
13
* Frequency(20)  939.0238
C     1.629061    0.403354    0.008664   -0.002091   -0.000280    0.004511
C     1.560218   -0.927202    0.045999   -0.007616    0.024763    0.293365
N     0.244044   -1.581713    0.242120    0.010879   -0.031851   -0.382787
C    -1.072275   -0.745457   -0.059328   -0.010379    0.031259    0.361184
N    -0.825865    0.584228   -0.059465    0.002997   -0.005145   -0.054315
C     0.427770    1.272584   -0.090177    0.000913   -0.002441   -0.029543
O    -2.089248   -1.344166    0.078109    0.001723   -0.006819   -0.076290
O     0.457664    2.462538   -0.200918   -0.000359    0.001182    0.011401
H     2.407077   -1.582334    0.384321    0.019696   -0.060793   -0.704164
H     0.136366   -2.441227    0.915680   -0.018577    1.140123    0.360911
H    -1.653030    1.185939   -0.121024    0.005133   -0.008426   -0.103744
H     2.591500    0.924535    0.122151    0.011360   -0.043207   -0.503190
H     0.176799   -2.015936   -0.759939   -0.003632   -1.059258    0.552872
13
* Frequency(20)  939.0238
C     1.629192    0.403371    0.008379   -0.002091   -0.000280    0.004511
C     1.560698   -0.928763    0.027512   -0.007616    0.024763    0.293365
N     0.243359   -1.579706    0.266242    0.010879   -0.031851   -0.382787
C    -1.071621   -0.747427   -0.082089   -0.010379    0.031259    0.361184
N    -0.826053    0.584553   -0.056042    0.002997   -0.005145   -0.054315
C     0.427712    1.272738   -0.088315    0.000913   -0.002441   -0.029543
O    -2.089356   -1.343736    0.082917    0.001723   -0.006819   -0.076290
O     0.457687    2.462464   -0.201637   -0.000359    0.001182    0.011401
H     2.405836   -1.578503    0.428696    0.019696   -0.060793   -0.704164
H     0.137537   -2.513074    0.892936   -0.018577    1.140123    0.360911
H    -1.653353    1.186470   -0.114486    0.005133   -0.008426   -0.103744
H     2.590784    0.927258    0.153861    0.011360   -0.043207   -0.503190
H     0.177028   -1.949184   -0.794779   -0.003632   -1.059258    0.552872
13
* Frequency(20)  939.0238
C     1.629252    0.403379    0.008252   -0.002091   -0.000280    0.004511
C     1.560914   -0.929463    0.019214   -0.007616    0.024763    0.293365
N     0.243051   -1.578805    0.277069    0.010879   -0.031851   -0.382787
C    -1.071327   -0.748311   -0.092305   -0.010379    0.031259    0.361184
N    -0.826138    0.584698   -0.054506    0.002997   -0.005145   -0.054315
C     0.427686    1.272807   -0.087479    0.000913   -0.002441   -0.029543
O    -2.089405   -1.343543    0.085074    0.001723   -0.006819   -0.076290
O     0.457697    2.462430   -0.201959   -0.000359    0.001182    0.011401
H     2.405279   -1.576784    0.448612    0.019696   -0.060793   -0.704164
H     0.138062   -2.545322    0.882728   -0.018577    1.140123    0.360911
H    -1.653499    1.186709   -0.111552    0.005133   -0.008426   -0.103744
H     2.590463    0.928480    0.168093    0.011360   -0.043207   -0.503190
H     0.177131   -1.919224   -0.810417   -0.003632   -1.059258    0.552872
13
* Frequency(20)  939.0238
C     1.629232    0.403377    0.008295   -0.002091   -0.000280    0.004511
C     1.560841   -0.929228    0.022006   -0.007616    0.024763    0.293365
N     0.243154   -1.579108    0.273427    0.010879   -0.031851   -0.382787
C    -1.071426   -0.748014   -0.088868   -0.010379    0.031259    0.361184
N    -0.826110    0.584649   -0.055022    0.002997   -0.005145   -0.054315
C     0.427695    1.272784   -0.087760    0.000913   -0.002441   -0.029543
O    -2.089389   -1.343608    0.084349    0.001723   -0.006819   -0.076290
O     0.457694    2.462441   -0.201851   -0.000359    0.001182    0.011401
H     2.405466   -1.577362    0.441912    0.019696   -0.060793   -0.704164
H     0.137885   -2.534474    0.886162   -0.018577    1.140123    0.360911
H    -1.653450    1.186628   -0.112539    0.005133   -0.008426   -0.103744
H     2.590571    0.928069    0.163305    0.011360   -0.043207   -0.503190
H     0.177096   -1.929303   -0.805156   -0.003632   -1.059258    0.552872
13
* Frequency(20)  939.0238
C     1.629135    0.403364    0.008504   -0.002091   -0.000280    0.004511
C     1.560489   -0.928081    0.035583   -0.007616    0.024763    0.293365
N     0.243658   -1.580582    0.255711    0.010879   -0.031851   -0.382787
C    -1.071906   -0.746567   -0.072152   -0.010379    0.031259    0.361184
N    -0.825971    0.584411   -0.057536    0.002997   -0.005145   -0.054315
C     0.427737    1.272671   -0.089128    0.000913   -0.002441   -0.029543
O    -2.089309   -1.343924    0.080818    0.001723   -0.006819   -0.076290
O     0.457677    2.462496   -0.201323   -0.000359    0.001182    0.011401
H     2.406378   -1.580176    0.409322    0.019696   -0.060793   -0.704164
H     0.137025   -2.481707    0.902866   -0.018577    1.140123    0.360911
H    -1.653212    1.186238   -0.117340    0.005133   -0.008426   -0.103744
H     2.591096    0.926069    0.140017    0.011360   -0.043207   -0.503190
H     0.176928   -1.978327   -0.779568   -0.003632   -1.059258    0.552872
13
* Frequency(20)  939.0238
C     1.628972    0.403342    0.008856   -0.002091   -0.000280    0.004511
C     1.559895   -0.926149    0.058475   -0.007616    0.024763    0.293365
N     0.244507   -1.583067    0.225840    0.010879   -0.031851   -0.382787
C    -1.072716   -0.744128   -0.043968   -0.010379    0.031259    0.361184
N    -0.825737    0.584010   -0.061775    0.002997   -0.005145   -0.054315
C     0.427809    1.272481   -0.091433    0.000913   -0.002441   -0.029543
O    -2.089175   -1.344456    0.074865    0.001723   -0.006819   -0.076290
O     0.457649    2.462588   -0.200433   -0.000359    0.001182    0.011401
H     2.407914   -1.584920    0.354374    0.019696   -0.060793   -0.704164
H     0.135576   -2.392739    0.931029   -0.018577    1.140123    0.360911
H    -1.652812    1.185581   -0.125436    0.005133   -0.008426   -0.103744
H     2.591983    0.922698    0.100751    0.011360   -0.043207   -0.503190
H     0.176645   -2.060985   -0.736426   -0.003632   -1.059258    0.552872
13
* Frequency(20)  939.0238
C     1.628760    0.403313    0.009313   -0.002091   -0.000280    0.004511
C     1.559123   -0.923640    0.088202   -0.007616    0.024763    0.293365
N     0.245609   -1.586295    0.187053    0.010879   -0.031851   -0.382787
C    -1.073768   -0.740960   -0.007369   -0.010379    0.031259    0.361184
N    -0.825433    0.583488   -0.067278    0.002997   -0.005145   -0.054315
C     0.427901    1.272233   -0.094427    0.000913   -0.002441   -0.029543
O    -2.089000   -1.345147    0.067134    0.001723   -0.006819   -0.076290
O     0.457613    2.462708   -0.199278   -0.000359    0.001182    0.011401
H     2.409910   -1.591080    0.283021    0.019696   -0.060793   -0.704164
H     0.133693   -2.277210    0.967600   -0.018577    1.140123    0.360911
H    -1.652291    1.184727   -0.135948    0.005133   -0.008426   -0.103744
H     2.593134    0.918319    0.049763    0.011360   -0.043207   -0.503190
H     0.176277   -2.168319   -0.680403   -0.003632   -1.059258    0.552872
13
* Frequency(20)  939.0238
C     1.628522    0.403282    0.009825   -0.002091   -0.000280    0.004511
C     1.558257   -0.920826    0.121541   -0.007616    0.024763    0.293365
N     0.246846   -1.589915    0.143551    0.010879   -0.031851   -0.382787
C    -1.074947   -0.737408    0.033678   -0.010379    0.031259    0.361184
N    -0.825093    0.582903   -0.073451    0.002997   -0.005145   -0.054315
C     0.428005    1.271956   -0.097784    0.000913   -0.002441   -0.029543
O    -2.088804   -1.345922    0.058464    0.001723   -0.006819   -0.076290
O     0.457572    2.462843   -0.197982   -0.000359    0.001182    0.011401
H     2.412149   -1.597989    0.202997    0.019696   -0.060793   -0.704164
H     0.131582   -2.147641    1.008616   -0.018577    1.140123    0.360911
H    -1.651708    1.183769   -0.147738    0.005133   -0.008426   -0.103744
H     2.594425    0.913409   -0.007422    0.011360   -0.043207   -0.503190
H     0.175864   -2.288698   -0.617572   -0.003632   -1.059258    0.552872
