13
* (null), Energy   -1000.0000000
C     1.372793    0.529851   -0.015036    0.003393    0.000012   -0.006012
C     1.302724   -0.794210    0.095800    0.006962   -0.024695   -0.293281
N    -0.008640   -1.463020    0.118827   -0.010607    0.031894    0.381295
C    -1.330555   -0.610659    0.008144    0.011097   -0.031089   -0.358510
N    -1.080705    0.709657   -0.097399   -0.004053    0.004655    0.052642
C     0.172593    1.398876   -0.122183   -0.001299    0.002878    0.031649
O    -2.344242   -1.219751    0.031049   -0.001877    0.006980    0.075627
O     0.201841    2.589695   -0.223265    0.000471   -0.001036   -0.011921
H     2.156844   -1.471062    0.176152   -0.021070    0.059680    0.713964
H    -0.124198   -2.019917    0.984598    0.021761   -1.137347   -0.358422
H    -1.907129    1.310644   -0.173530   -0.007254    0.007697    0.110399
H     2.338608    1.040183   -0.032851   -0.009354    0.042445    0.506968
H    -0.080594   -2.162817   -0.641747    0.001814    1.055573   -0.552919
13
* Frequency(20)  940.0385
C     1.373178    0.529852   -0.015719    0.003393    0.000012   -0.006012
C     1.303515   -0.797016    0.062470    0.006962   -0.024695   -0.293281
N    -0.009846   -1.459396    0.162159   -0.010607    0.031894    0.381295
C    -1.329294   -0.614192   -0.032598    0.011097   -0.031089   -0.358510
N    -1.081166    0.710186   -0.091416   -0.004053    0.004655    0.052642
C     0.172446    1.399203   -0.118586   -0.001299    0.002878    0.031649
O    -2.344455   -1.218958    0.039643   -0.001877    0.006980    0.075627
O     0.201895    2.589578   -0.224619    0.000471   -0.001036   -0.011921
H     2.154449   -1.464279    0.257290   -0.021070    0.059680    0.713964
H    -0.121725   -2.149170    0.943865    0.021761   -1.137347   -0.358422
H    -1.907953    1.311518   -0.160984   -0.007254    0.007697    0.110399
H     2.337544    1.045006    0.024763   -0.009354    0.042445    0.506968
H    -0.080387   -2.042857   -0.704584    0.001814    1.055573   -0.552919
13
* Frequency(20)  940.0385
C     1.373522    0.529854   -0.016329    0.003393    0.000012   -0.006012
C     1.304221   -0.799518    0.032752    0.006962   -0.024695   -0.293281
N    -0.010920   -1.456164    0.200796   -0.010607    0.031894    0.381295
C    -1.328170   -0.617342   -0.068926    0.011097   -0.031089   -0.358510
N    -1.081576    0.710658   -0.086082   -0.004053    0.004655    0.052642
C     0.172314    1.399495   -0.115379   -0.001299    0.002878    0.031649
O    -2.344645   -1.218250    0.047307   -0.001877    0.006980    0.075627
O     0.201942    2.589473   -0.225827    0.000471   -0.001036   -0.011921
H     2.152314   -1.458232    0.329636   -0.021070    0.059680    0.713964
H    -0.119520   -2.264417    0.907547    0.021761   -1.137347   -0.358422
H    -1.908688    1.312298   -0.149797   -0.007254    0.007697    0.110399
H     2.336597    1.049307    0.076134   -0.009354    0.042445    0.506968
H    -0.080204   -1.935896   -0.760611    0.001814    1.055573   -0.552919
13
* Frequency(20)  940.0385
C     1.373787    0.529855   -0.016798    0.003393    0.000012   -0.006012
C     1.304764   -0.801445    0.009867    0.006962   -0.024695   -0.293281
N    -0.011748   -1.453675    0.230550   -0.010607    0.031894    0.381295
C    -1.327304   -0.619768   -0.096902    0.011097   -0.031089   -0.358510
N    -1.081893    0.711021   -0.081974   -0.004053    0.004655    0.052642
C     0.172213    1.399719   -0.112909   -0.001299    0.002878    0.031649
O    -2.344792   -1.217706    0.053208   -0.001877    0.006980    0.075627
O     0.201979    2.589392   -0.226758    0.000471   -0.001036   -0.011921
H     2.150670   -1.453575    0.385349   -0.021070    0.059680    0.713964
H    -0.117821   -2.353169    0.879577    0.021761   -1.137347   -0.358422
H    -1.909254    1.312899   -0.141182   -0.007254    0.007697    0.110399
H     2.335867    1.052620    0.115694   -0.009354    0.042445    0.506968
H    -0.080062   -1.853526   -0.803757    0.001814    1.055573   -0.552919
13
* Frequency(20)  940.0385
C     1.373944    0.529855   -0.017076    0.003393    0.000012   -0.006012
C     1.305086   -0.802588   -0.003707    0.006962   -0.024695   -0.293281
N    -0.012239   -1.452199    0.248197   -0.010607    0.031894    0.381295
C    -1.326790   -0.621207   -0.113494    0.011097   -0.031089   -0.358510
N    -1.082080    0.711236   -0.079538   -0.004053    0.004655    0.052642
C     0.172153    1.399852   -0.111444   -0.001299    0.002878    0.031649
O    -2.344879   -1.217383    0.056708   -0.001877    0.006980    0.075627
O     0.202001    2.589344   -0.227309    0.000471   -0.001036   -0.011921
H     2.149695   -1.450813    0.418393   -0.021070    0.059680    0.713964
H    -0.116814   -2.405807    0.862989    0.021761   -1.137347   -0.358422
H    -1.909590    1.313255   -0.136073   -0.007254    0.007697    0.110399
H     2.335434    1.054584    0.139158   -0.009354    0.042445    0.506968
H    -0.079978   -1.804672   -0.829347    0.001814    1.055573   -0.552919
13
* Frequency(20)  940.0385
C     1.373976    0.529855   -0.017133    0.003393    0.000012   -0.006012
C     1.305152   -0.802823   -0.006497    0.006962   -0.024695   -0.293281
N    -0.012340   -1.451896    0.251825   -0.010607    0.031894    0.381295
C    -1.326685   -0.621503   -0.116905    0.011097   -0.031089   -0.358510
N    -1.082119    0.711280   -0.079037   -0.004053    0.004655    0.052642
C     0.172140    1.399880   -0.111143   -0.001299    0.002878    0.031649
O    -2.344897   -1.217316    0.057428   -0.001877    0.006980    0.075627
O     0.202005    2.589334   -0.227423    0.000471   -0.001036   -0.011921
H     2.149494   -1.450245    0.425186   -0.021070    0.059680    0.713964
H    -0.116607   -2.416628    0.859579    0.021761   -1.137347   -0.358422
H    -1.909659    1.313328   -0.135022   -0.007254    0.007697    0.110399
H     2.335345    1.054988    0.143981   -0.009354    0.042445    0.506968
H    -0.079961   -1.794629   -0.834608    0.001814    1.055573   -0.552919
13
* Frequency(20)  940.0385
C     1.373880    0.529855   -0.016963    0.003393    0.000012   -0.006012
C     1.304955   -0.802125    0.001798    0.006962   -0.024695   -0.293281
N    -0.012040   -1.452798    0.241040   -0.010607    0.031894    0.381295
C    -1.326999   -0.620624   -0.106765    0.011097   -0.031089   -0.358510
N    -1.082004    0.711149   -0.080526   -0.004053    0.004655    0.052642
C     0.172177    1.399798   -0.112039   -0.001299    0.002878    0.031649
O    -2.344844   -1.217514    0.055289   -0.001877    0.006980    0.075627
O     0.201992    2.589363   -0.227086    0.000471   -0.001036   -0.011921
H     2.150090   -1.451933    0.404992   -0.021070    0.059680    0.713964
H    -0.117223   -2.384460    0.869716    0.021761   -1.137347   -0.358422
H    -1.909454    1.313111   -0.138145   -0.007254    0.007697    0.110399
H     2.335609    1.053787    0.129642   -0.009354    0.042445    0.506968
H    -0.080012   -1.824484   -0.818969    0.001814    1.055573   -0.552919
13
* Frequency(20)  940.0385
C     1.373666    0.529854   -0.016584    0.003393    0.000012   -0.006012
C     1.304517   -0.800569    0.020280    0.006962   -0.024695   -0.293281
N    -0.011371   -1.454808    0.217012   -0.010607    0.031894    0.381295
C    -1.327698   -0.618665   -0.084173    0.011097   -0.031089   -0.358510
N    -1.081749    0.710856   -0.083843   -0.004053    0.004655    0.052642
C     0.172259    1.399617   -0.114033   -0.001299    0.002878    0.031649
O    -2.344725   -1.217953    0.050523   -0.001877    0.006980    0.075627
O     0.201962    2.589428   -0.226334    0.000471   -0.001036   -0.011921
H     2.151418   -1.455694    0.360000   -0.021070    0.059680    0.713964
H    -0.118594   -2.312787    0.892303    0.021761   -1.137347   -0.358422
H    -1.908997    1.312626   -0.145102   -0.007254    0.007697    0.110399
H     2.336199    1.051113    0.097695   -0.009354    0.042445    0.506968
H    -0.080127   -1.891004   -0.784126    0.001814    1.055573   -0.552919
13
* Frequency(20)  940.0385
C     1.373358    0.529853   -0.016038    0.003393    0.000012   -0.006012
C     1.303884   -0.798323    0.046945    0.006962   -0.024695   -0.293281
N    -0.010407   -1.457707    0.182344   -0.010607    0.031894    0.381295
C    -1.328707   -0.615838   -0.051577    0.011097   -0.031089   -0.358510
N    -1.081380    0.710432   -0.088629   -0.004053    0.004655    0.052642
C     0.172377    1.399355   -0.116911   -0.001299    0.002878    0.031649
O    -2.344555   -1.218588    0.043647   -0.001877    0.006980    0.075627
O     0.201920    2.589523   -0.225251    0.000471   -0.001036   -0.011921
H     2.153334   -1.461120    0.295085   -0.021070    0.059680    0.713964
H    -0.120573   -2.209378    0.924892    0.021761   -1.137347   -0.358422
H    -1.908337    1.311926   -0.155139   -0.007254    0.007697    0.110399
H     2.337049    1.047253    0.051600   -0.009354    0.042445    0.506968
H    -0.080291   -1.986978   -0.733853    0.001814    1.055573   -0.552919
13
* Frequency(20)  940.0385
C     1.372988    0.529852   -0.015382    0.003393    0.000012   -0.006012
C     1.303125   -0.795632    0.078905    0.006962   -0.024695   -0.293281
N    -0.009251   -1.461183    0.140793   -0.010607    0.031894    0.381295
C    -1.329916   -0.612450   -0.012509    0.011097   -0.031089   -0.358510
N    -1.080938    0.709925   -0.094366   -0.004053    0.004655    0.052642
C     0.172519    1.399042   -0.120359   -0.001299    0.002878    0.031649
O    -2.344350   -1.219349    0.035405   -0.001877    0.006980    0.075627
O     0.201868    2.589636   -0.223951    0.000471   -0.001036   -0.011921
H     2.155630   -1.467624    0.217282   -0.021070    0.059680    0.713964
H    -0.122944   -2.085437    0.963950    0.021761   -1.137347   -0.358422
H    -1.907547    1.311087   -0.167170   -0.007254    0.007697    0.110399
H     2.338069    1.042628   -0.003646   -0.009354    0.042445    0.506968
H    -0.080489   -2.102008   -0.673600    0.001814    1.055573   -0.552919
13
* Frequency(20)  940.0385
C     1.372597    0.529850   -0.014690    0.003393    0.000012   -0.006012
C     1.302323   -0.792787    0.112696    0.006962   -0.024695   -0.293281
N    -0.008029   -1.464858    0.096862   -0.010607    0.031894    0.381295
C    -1.331195   -0.608868    0.028798    0.011097   -0.031089   -0.358510
N    -1.080471    0.709389   -0.100431   -0.004053    0.004655    0.052642
C     0.172668    1.398710   -0.124006   -0.001299    0.002878    0.031649
O    -2.344134   -1.220153    0.026692   -0.001877    0.006980    0.075627
O     0.201814    2.589755   -0.222578    0.000471   -0.001036   -0.011921
H     2.158057   -1.474500    0.135022   -0.021070    0.059680    0.713964
H    -0.125451   -1.954396    1.005246    0.021761   -1.137347   -0.358422
H    -1.906711    1.310200   -0.179890   -0.007254    0.007697    0.110399
H     2.339146    1.037738   -0.062057   -0.009354    0.042445    0.506968
H    -0.080698   -2.223627   -0.609895    0.001814    1.055573   -0.552919
13
* Frequency(20)  940.0385
C     1.372228    0.529849   -0.014035    0.003393    0.000012   -0.006012
C     1.301564   -0.790096    0.144655    0.006962   -0.024695   -0.293281
N    -0.006873   -1.468333    0.055310   -0.010607    0.031894    0.381295
C    -1.332404   -0.605480    0.067866    0.011097   -0.031089   -0.358510
N    -1.080030    0.708882   -0.106168   -0.004053    0.004655    0.052642
C     0.172810    1.398396   -0.127455   -0.001299    0.002878    0.031649
O    -2.343929   -1.220914    0.018451   -0.001877    0.006980    0.075627
O     0.201763    2.589868   -0.221279    0.000471   -0.001036   -0.011921
H     2.160353   -1.481003    0.057218   -0.021070    0.059680    0.713964
H    -0.127823   -1.830456    1.044305    0.021761   -1.137347   -0.358422
H    -1.905920    1.309361   -0.191920   -0.007254    0.007697    0.110399
H     2.340166    1.033112   -0.117303   -0.009354    0.042445    0.506968
H    -0.080896   -2.338656   -0.549641    0.001814    1.055573   -0.552919
13
* Frequency(20)  940.0385
C     1.371919    0.529848   -0.013488    0.003393    0.000012   -0.006012
C     1.300931   -0.787850    0.171321    0.006962   -0.024695   -0.293281
N    -0.005909   -1.471233    0.020642   -0.010607    0.031894    0.381295
C    -1.333413   -0.602654    0.100462    0.011097   -0.031089   -0.358510
N    -1.079661    0.708458   -0.110954   -0.004053    0.004655    0.052642
C     0.172928    1.398135   -0.130333   -0.001299    0.002878    0.031649
O    -2.343758   -1.221548    0.011575   -0.001877    0.006980    0.075627
O     0.201720    2.589962   -0.220195    0.000471   -0.001036   -0.011921
H     2.162269   -1.486429   -0.007696   -0.021070    0.059680    0.713964
H    -0.129801   -1.727046    1.076893    0.021761   -1.137347   -0.358422
H    -1.905261    1.308662   -0.201958   -0.007254    0.007697    0.110399
H     2.341016    1.029253   -0.163397   -0.009354    0.042445    0.506968
H    -0.081061   -2.434631   -0.499369    0.001814    1.055573   -0.552919
13
* Frequency(20)  940.0385
C     1.371705    0.529847   -0.013109    0.003393    0.000012   -0.006012
C     1.300492   -0.786294    0.189803    0.006962   -0.024695   -0.293281
N    -0.005240   -1.473243   -0.003386   -0.010607    0.031894    0.381295
C    -1.334112   -0.600695    0.123054    0.011097   -0.031089   -0.358510
N    -1.079406    0.708165   -0.114271   -0.004053    0.004655    0.052642
C     0.173010    1.397953   -0.132327   -0.001299    0.002878    0.031649
O    -2.343640   -1.221988    0.006809   -0.001877    0.006980    0.075627
O     0.201690    2.590027   -0.219444    0.000471   -0.001036   -0.011921
H     2.163597   -1.490190   -0.052689   -0.021070    0.059680    0.713964
H    -0.131172   -1.655374    1.099480    0.021761   -1.137347   -0.358422
H    -1.904804    1.308177   -0.208915   -0.007254    0.007697    0.110399
H     2.341606    1.026578   -0.195345   -0.009354    0.042445    0.506968
H    -0.081175   -2.501150   -0.464525    0.001814    1.055573   -0.552919
13
* Frequency(20)  940.0385
C     1.371609    0.529847   -0.012939    0.003393    0.000012   -0.006012
C     1.300296   -0.785596    0.198098    0.006962   -0.024695   -0.293281
N    -0.004940   -1.474145   -0.014170   -0.010607    0.031894    0.381295
C    -1.334426   -0.599815    0.133194    0.011097   -0.031089   -0.358510
N    -1.079291    0.708033   -0.115760   -0.004053    0.004655    0.052642
C     0.173046    1.397872   -0.133222   -0.001299    0.002878    0.031649
O    -2.343587   -1.222186    0.004670   -0.001877    0.006980    0.075627
O     0.201677    2.590057   -0.219107    0.000471   -0.001036   -0.011921
H     2.164193   -1.491878   -0.072882   -0.021070    0.059680    0.713964
H    -0.131788   -1.623205    1.109618    0.021761   -1.137347   -0.358422
H    -1.904598    1.307959   -0.212037   -0.007254    0.007697    0.110399
H     2.341870    1.025378   -0.209684   -0.009354    0.042445    0.506968
H    -0.081226   -2.531006   -0.448887    0.001814    1.055573   -0.552919
13
* Frequency(20)  940.0385
C     1.371642    0.529847   -0.012996    0.003393    0.000012   -0.006012
C     1.300362   -0.785831    0.195307    0.006962   -0.024695   -0.293281
N    -0.005041   -1.473842   -0.010542   -0.010607    0.031894    0.381295
C    -1.334321   -0.600111    0.129783    0.011097   -0.031089   -0.358510
N    -1.079330    0.708078   -0.115260   -0.004053    0.004655    0.052642
C     0.173034    1.397899   -0.132921   -0.001299    0.002878    0.031649
O    -2.343605   -1.222119    0.005389   -0.001877    0.006980    0.075627
O     0.201681    2.590047   -0.219220    0.000471   -0.001036   -0.011921
H     2.163992   -1.491310   -0.066089   -0.021070    0.059680    0.713964
H    -0.131581   -1.634026    1.106207    0.021761   -1.137347   -0.358422
H    -1.904667    1.308032   -0.210987   -0.007254    0.007697    0.110399
H     2.341781    1.025781   -0.204861   -0.009354    0.042445    0.506968
H    -0.081209   -2.520962   -0.454147    0.001814    1.055573   -0.552919
13
* Frequency(20)  940.0385
C     1.371799    0.529848   -0.013274    0.003393    0.000012   -0.006012
C     1.300684   -0.786974    0.181734    0.006962   -0.024695   -0.293281
N    -0.005532   -1.472366    0.007105   -0.010607    0.031894    0.381295
C    -1.333807   -0.601550    0.113191    0.011097   -0.031089   -0.358510
N    -1.079517    0.708293   -0.112823   -0.004053    0.004655    0.052642
C     0.172974    1.398032   -0.131456   -0.001299    0.002878    0.031649
O    -2.343692   -1.221796    0.008889   -0.001877    0.006980    0.075627
O     0.201703    2.589999   -0.219772    0.000471   -0.001036   -0.011921
H     2.163017   -1.488548   -0.033046   -0.021070    0.059680    0.713964
H    -0.130574   -1.686665    1.089619    0.021761   -1.137347   -0.358422
H    -1.905003    1.308388   -0.205877   -0.007254    0.007697    0.110399
H     2.341348    1.027746   -0.181397   -0.009354    0.042445    0.506968
H    -0.081125   -2.472109   -0.479737    0.001814    1.055573   -0.552919
13
* Frequency(20)  940.0385
C     1.372063    0.529849   -0.013744    0.003393    0.000012   -0.006012
C     1.301227   -0.788901    0.158848    0.006962   -0.024695   -0.293281
N    -0.006360   -1.469877    0.036859   -0.010607    0.031894    0.381295
C    -1.332941   -0.603976    0.085215    0.011097   -0.031089   -0.358510
N    -1.079834    0.708656   -0.108715   -0.004053    0.004655    0.052642
C     0.172873    1.398257   -0.128987   -0.001299    0.002878    0.031649
O    -2.343838   -1.221251    0.014791   -0.001877    0.006980    0.075627
O     0.201740    2.589918   -0.220702    0.000471   -0.001036   -0.011921
H     2.161373   -1.483891    0.022668   -0.021070    0.059680    0.713964
H    -0.128876   -1.775416    1.061650    0.021761   -1.137347   -0.358422
H    -1.905569    1.308989   -0.197263   -0.007254    0.007697    0.110399
H     2.340618    1.031058   -0.141837   -0.009354    0.042445    0.506968
H    -0.080983   -2.389738   -0.522884    0.001814    1.055573   -0.552919
13
* Frequency(20)  940.0385
C     1.372407    0.529850   -0.014353    0.003393    0.000012   -0.006012
C     1.301933   -0.791403    0.129130    0.006962   -0.024695   -0.293281
N    -0.007435   -1.466645    0.075495   -0.010607    0.031894    0.381295
C    -1.331817   -0.607126    0.048887    0.011097   -0.031089   -0.358510
N    -1.080244    0.709128   -0.103381   -0.004053    0.004655    0.052642
C     0.172741    1.398549   -0.125780   -0.001299    0.002878    0.031649
O    -2.344029   -1.220544    0.022454   -0.001877    0.006980    0.075627
O     0.201788    2.589813   -0.221910    0.000471   -0.001036   -0.011921
H     2.159238   -1.477844    0.095013   -0.021070    0.059680    0.713964
H    -0.126671   -1.890663    1.025331    0.021761   -1.137347   -0.358422
H    -1.906304    1.309769   -0.186076   -0.007254    0.007697    0.110399
H     2.339671    1.035359   -0.090466   -0.009354    0.042445    0.506968
H    -0.080800   -2.282777   -0.578911    0.001814    1.055573   -0.552919
13
* Frequency(20)  940.0385
C     1.372793    0.529851   -0.015036    0.003393    0.000012   -0.006012
C     1.302724   -0.794210    0.095800    0.006962   -0.024695   -0.293281
N    -0.008640   -1.463020    0.118827   -0.010607    0.031894    0.381295
C    -1.330555   -0.610659    0.008144    0.011097   -0.031089   -0.358510
N    -1.080705    0.709657   -0.097399   -0.004053    0.004655    0.052642
C     0.172593    1.398876   -0.122183   -0.001299    0.002878    0.031649
O    -2.344242   -1.219751    0.031049   -0.001877    0.006980    0.075627
O     0.201841    2.589695   -0.223265    0.000471   -0.001036   -0.011921
H     2.156844   -1.471062    0.176152   -0.021070    0.059680    0.713964
H    -0.124198   -2.019917    0.984598    0.021761   -1.137347   -0.358422
H    -1.907129    1.310644   -0.173530   -0.007254    0.007697    0.110399
H     2.338608    1.040183   -0.032851   -0.009354    0.042445    0.506968
H    -0.080594   -2.162817   -0.641747    0.001814    1.055573   -0.552919
