
                                 *****************
                                 * O   R   C   A *
                                 *****************

                                            #,                                       
                                            ###                                      
                                            ####                                     
                                            #####                                    
                                            ######                                   
                                           ########,                                 
                                     ,,################,,,,,                         
                               ,,#################################,,                 
                          ,,##########################################,,             
                       ,#########################################, ''#####,          
                    ,#############################################,,   '####,        
                  ,##################################################,,,,####,       
                ,###########''''           ''''###############################       
              ,#####''   ,,,,##########,,,,          '''####'''          '####       
            ,##' ,,,,###########################,,,                        '##       
           ' ,,###''''                  '''############,,,                           
         ,,##''                                '''############,,,,        ,,,,,,###''
      ,#''                                            '''#######################'''  
     '                                                          ''''####''''         
             ,#######,   #######,   ,#######,      ##                                
            ,#'     '#,  ##    ##  ,#'     '#,    #''#        ,####,    ,#,          
            ##       ##  ##   ,#'  ##            #'  '#       #'       ,# #          
            ##       ##  #######   ##           ,######,      #####,      #          
            '#,     ,#'  ##    ##  '#,     ,#' ,#      #,     #,   #      #          
             '#######'   ##     ##  '#######'  #'      '#     '####' #    #          



                #########################################################
                #                        -***-                          #
                #          Department of theory and spectroscopy        #
                #                                                       #
                #                      Frank Neese                      #
                #                                                       #
                #     Directorship, Architecture, Infrastructure        #
                #                    SHARK, DRIVERS                     #
                #        Core code/Algorithms in most modules           #
                #                                                       #
                #        Max Planck Institute fuer Kohlenforschung      #
                #                Kaiser Wilhelm Platz 1                 #
                #                 D-45470 Muelheim/Ruhr                 #
                #                      Germany                          #
                #                                                       #
                #                  All rights reserved                  #
                #                        -***-                          #
                #########################################################


                         Program Version 6.1.0-f.0  -   RELEASE   -


 With contributions from (in alphabetic order):
[Max-Planck-Institut fuer Kohlenforschung]                               
  Daniel Aravena         : Magnetic Suceptibility                        
  Michael Atanasov       : Ab Initio Ligand Field Theory (pilot matlab implementation)
  Alexander A. Auer      : GIAO ZORA, VPT2 properties, NMR spectrum      
  Ute Becker             : All parallelization in ORCA, NUMFREQ, NUMCALC 
  Giovanni Bistoni       : ED, misc. LED, open-shell LED, HFLD           
  Dmytro Bykov           : pre 5.0 version of the SCF Hessian            
  Marcos Casanova-Páez   : Triplet and SCS-CIS(D). UHF-(DLPNO)-IP/EA/STEOM-CCSD. UHF-CVS-IP/STEOM-CCSD   
  Vijay G. Chilkuri      : MRCI spin determinant printing, contributions to CSF-ICE 
  Pauline Colinet        : FMM embedding                                 
  Dipayan Datta          : RHF DLPNO-CCSD density                        
  Achintya Kumar Dutta   : EOM-CC, STEOM-CC                              
  Nicolas Foglia         : Exact transition moments, OPA infrastructure, MCD improvements    
  Dmitry Ganyushin       : Spin-Orbit,Spin-Spin,Magnetic field MRCI      
  Miquel Garcia-Rates    : C-PCM and meta-GGA Hessian, CCSD/C-PCM, Gaussian charge scheme 
  Tiago L. C. Gouveia    : GS-ROHF, GS-ROCIS                             
  Yang Guo               : DLPNO-NEVPT2, F12-NEVPT2, CIM, IAO-localization        
  Andreas Hansen         : Spin unrestricted coupled pair/coupled cluster methods 
  Ingolf Harden          : AUTO-CI MPn and infrastructure                
  Benjamin Helmich-Paris : MC-RPA, TRAH-(SCF,CASSCF), AVAS, COSX integrals, SCF dyn. polar., MC-PDFT, srDFT 
  Lee Huntington         : MR-EOM, pCC                                   
  Robert Izsak           : Overlap fitted RIJCOSX, COSX-SCS-MP3, EOM     
  Riya Kayal             : Wick's Theorem for AUTO-CI, AUTO-CI UHF-CCSDT 
  Emily Kempfer          : AUTO-CI RHF CISDT and CCSDT, approximate NEVPT4
  Christian Kollmar      : KDIIS, OOCD, Brueckner-CCSD(T), CCSD density, CASPT2, CASPT2-K, improved NEVPT2 
  Axel Koslowski         : Symmetry handling                             
  Simone Kossmann        : meta-GGA functionals, TD-DFT gradient, OOMP2, (MP2 Hessian; deprecated post 5.0) 
  Lucas Lang             : DCDCAS, Hyperfine gauge corrections, ICE-SOC+SSC
  Marvin Lechner         : AUTO-CI (C++ implementation), FIC-MRCC        
  Spencer Leger          : CASSCF response                               
  Dagmar Lenk            : GEPOL surface, SMD, ORCA-2-JSON               
  Dimitrios Liakos       : Extrapolation schemes; Compound Job, Property file
  Dimitrios Manganas     : Further ROCIS development; embedding schemes. LFT, Crystal Embedding 
  Dimitrios Pantazis     : SARC Basis sets                               
  Anastasios Papadopoulos: AUTO-CI, single reference methods and gradients 
  Taras Petrenko         : pre 6.0 DFT Hessian and TD-DFT gradient,  ECA, NRVS 
  Petra Pikulova         : Analytic Raman intensities                    
  Peter Pinski           : DLPNO-MP2, DLPNO-MP2 Gradient                 
  Shashank Vittal Rao    : ES-AILFT, MagRelax                            
  Christoph Reimann      : Effective Core Potentials                     
  Marius Retegan         : Local ZFS, SOC                                
  Christoph Riplinger    : Optimizer, TS searches, QM/MM, DLPNO-CCSD(T), (RO)-DLPNO pert. Triples 
  Michael Roemelt        : Original ROCIS implementation, recursive CI coupling coefficients
  Masaaki Saitow         : Open-shell DLPNO-CCSD energy and density      
  Barbara Sandhoefer     : DKH picture change effects                    
  Yorick L. A. Schmerwitz: GMF and freeze-and-release deltaSCF, NEB S-IDPP initial path                    
  Kantharuban Sivalingam : CASSCF convergence/infrastructure, NEVPT2, NEVPT3, NEVPT4(SD), FIC-MRCI and CEPA variants
  Bernardo de Souza      : ESD, SOC TD-DFT                               
  Georgi L. Stoychev     : AutoAux, RI-MP2 NMR, DLPNO-MP2 response, X2C  
  Van Anh Tran           : RI-MP2 g-tensors                              
  Willem Van den Heuvel  : Paramagnetic NMR                              
  Zikuan Wang            : NOTCH, Electric field optimization            
  Frank Wennmohs         : Technical directorship and infrastructure     
  Hang Xu                : AUTO-CI-Response properties                   
                                                                         
[FACCTs GmbH]                                                            
  Markus Bursch, Nicolas Foglia, Miquel Garcia-Rates, Ingolf Harden, Hagen Neugebauer, Anastasios Papadopoulos, 
  Christoph Riplinger, Bernardo de Souza, Georgi L. Stoychev                                                    
                                                                 
  APM, various basis sets, CI-OPT, improved COSX, DLPNO-Multilevel,           
  DOCKER, DRACO, updates on ESD, Fragmentator, GOAT, IRC, LR-CPCM, L-BFGS, MBIS, meta-GGA TD-DFT gradient, ML-optimized integration grids, 
  MM, NACMEs, nearIR, NEB, NEB-TS, NL-DFT gradient (VV10), 2- and 3-layer-ONIOM, interface openCOSMO-RS, QMMM,   
  Crystal-QMMM, RESP, rigid body optimization, SF, symmetry and pop. for TD-DFT, various functionals, SOLVATOR                                   
                                                                         
[Other institutions]                                                     
  V. Asgeirsson          : NEB                                           
  Christoph Bannwarth    : sTDA-DFT, sTD-DFT, PBEh-3c, B97-3c, D3        
  Giovanni Bistoni       : ETS/NOCV, ADLD/ADEX, COVALED                  
  Martin Brehm           : Molecular dynamics                            
  Ronald Cardenas        : ETS/NOCV                                      
  Martina Colucci        : COVALED                                       
  Sebastian Ehlert       : rSCAN, r2SCAN, r2SCAN-3c, D4, dhf basis sets  
  Marvin Friede          : D4 for Fr, Ra, Ac-Lr                          
  Lars Goerigk           : TD-DFT with DH, B97 family of functionals     
  Stefan Grimme          : VdW corrections, initial TS optimization, DFT functionals, gCP, sTDA/sTD-DF 
  Waldemar Hujo          : DFT-NL                                        
  H. Jonsson             : NEB                                           
  Holger Kruse           : gCP                                           
  Marcel Mueller         : wB97X-3c, vDZP basis set                      
  Hagen Neugebauer       : wr2SCAN, Native XTB                           
  Gianluca Regni         : ADLD/ADEX                                     
  Tobias Risthaus        : pre 6.0 range-separated hybrid DFT and stability analysis
  Lukas Wittmann         : regularized MP2, r2SCAN double-hybrids, wr2SCAN        
                                                                         
We gratefully acknowledge several colleagues who have allowed us to      
interface, adapt or use parts of their codes:                            
  Ed Valeev, F. Pavosevic, A. Kumar             : LibInt (2-el integral package), F12 methods 
  Garnet Chan, S. Sharma, J. Yang, R. Olivares  : DMRG                   
  Ulf Ekstrom                                   : XCFun DFT Library      
  Mihaly Kallay                                 : mrcc  (arbitrary order and MRCC methods)
  Frank Weinhold                                : gennbo (NPA and NBO analysis)           
  Simon Mueller                                 : openCOSMO-RS                            
  Christopher J. Cramer and Donald G. Truhlar   : smd solvation model                     
  S Lehtola, MJT Oliveira, MAL Marques          : LibXC Library                           
  Liviu Ungur et al                             : ANISO software                          


 Your calculation uses the libint2 library for the computation of 2-el integrals
 For citations please refer to: http://libint.valeyev.net

 Your ORCA version has been built with support for libXC version: 7.0.0
 For citations please refer to: https://libxc.gitlab.io

 This ORCA versions uses:
   CBLAS   interface :  Fast vector & matrix operations
   LAPACKE interface :  Fast linear algebra routines
   SCALAPACK package :  Parallel linear algebra routines
   Shared memory     :  Shared parallel matrices
   BLAS/LAPACK       :  OpenBLAS 0.3.29  USE64BITINT DYNAMIC_ARCH NO_AFFINITY Cooperlake SINGLE_THREADED
        Core in use  :  Cooperlake
   Copyright (c) 2011-2014, The OpenBLAS Project


  ***********************************
  * Starting time: Fri Jul 18 12:36:50 2025
  * Host name:     abcsim-001
  * Process ID:    936809
  * Working dir.:  /home/vhpaschoal/orca_test/Uracil/Vacuo/Uracil_1
  ***********************************

Warning: RI is on but no J-basis has been assigned. Assigning Def2/J (nothing to worry about!)
================================================================================

----- Orbital basis set information -----
Your calculation utilizes the basis: def2-SVP
   F. Weigend and R. Ahlrichs, Phys. Chem. Chem. Phys. 7, 3297 (2005).

----- AuxJ basis set information -----
Your calculation utilizes the auxiliary basis: def2/J
   H-Rn: F. Weigend, Phys. Chem. Chem. Phys. 8, 1057 (2006).
   Fr-Lr: K. Eichkorn, F. Weigend, O. Treutler, R. Ahlrichs; Theor. Chem. Acc. 97, 119 (1997).

================================================================================
                                        WARNINGS
                       Please study these warnings very carefully!
================================================================================


WARNING: Geometry Optimization
  ===> : Switching off AutoStart
         For restart on a previous wavefunction, please use MOREAD

================================================================================
                                       INPUT FILE
================================================================================
NAME = Uracil_1.inp
|  1> !B3LYP def2-SVP OPT FREQ pal16
|  2> * xyz 1 1
|  3>    C        1.33878        0.51508       -0.01708
|  4>    C        1.24526       -0.81240        0.09268
|  5>    N       -0.02415       -1.41966        0.11620
|  6>    C       -1.17237       -0.61743        0.00888
|  7>    N       -1.05625        0.71979       -0.10636
|  8>    C        0.13881        1.36406       -0.11760
|  9>    O       -2.19305       -1.27075        0.03788
| 10>    O        0.23534        2.57757       -0.20466
| 11>    H        2.15069       -1.41636        0.16463
| 12>    H       -0.21763       -1.98249        0.95584
| 13>    H       -1.89431        1.28315       -0.17534
| 14>    H        2.29444        1.03083       -0.03758
| 15>    H       -0.17622       -2.13392       -0.60893
| 16> *
| 17> 
| 18>                          ****END OF INPUT****
================================================================================

                       *****************************
                       * Geometry Optimization Run *
                       *****************************

Geometry optimization settings:
Update method            Update   .... BFGS
Choice of coordinates    CoordSys .... (2022) Redundant Internals
Initial Hessian          InHess   .... Almloef's Model
Max. no of cycles        MaxIter  .... 50

Convergence Tolerances:
Energy Change            TolE     ....  5.0000e-06 Eh
Max. Gradient            TolMAXG  ....  3.0000e-04 Eh/bohr
RMS Gradient             TolRMSG  ....  1.0000e-04 Eh/bohr
Max. Displacement        TolMAXD  ....  4.0000e-03 bohr
RMS Displacement         TolRMSD  ....  2.0000e-03 bohr
Strict Convergence                .... False

------------------------------------------------------------------------------
                        ORCA OPTIMIZATION COORDINATE SETUP
------------------------------------------------------------------------------

The optimization will be done in redundant internal coordinates (2022)
Making redundant internal coordinates   ...  (2022 redundants) done
Evaluating the initial hessian          ...  (Almloef) done
Evaluating the coordinates              ...  done
Calculating the B-matrix                .... done
Calculating the G-matrix                .... done
The number of degrees of freedom        ....   60

    -----------------------------------------------------------------
                    Redundant Internal Coordinates


    -----------------------------------------------------------------
         Definition                    Initial Value    Approx d2E/dq
    -----------------------------------------------------------------
      1. B(C   1,C   0)                  1.3353         0.763883   
      2. B(N   2,C   1)                  1.4074         0.524984   
      3. B(C   3,N   2)                  1.4048         0.529959   
      4. B(N   4,C   3)                  1.3472         0.654901   
      5. B(C   5,N   4)                  1.3577         0.630073   
      6. B(C   5,C   0)                  1.4734         0.459979   
      7. B(O   6,C   3)                  1.2122         1.075292   
      8. B(O   7,C   5)                  1.2205         1.043225   
      9. B(H   8,C   1)                  1.0908         0.359102   
     10. B(H   9,N   2)                  1.0292         0.403272   
     11. B(H  10,N   4)                  1.0122         0.429281   
     12. B(H  11,C   0)                  1.0861         0.365240   
     13. B(H  12,N   2)                  1.0291         0.403344   
     14. A(C   5,C   0,H  11)          116.2123         0.336458   
     15. A(C   1,C   0,H  11)          122.3604         0.366563   
     16. A(C   1,C   0,C   5)          121.4273         0.427120   
     17. A(C   0,C   1,N   2)          119.5712         0.434522   
     18. A(C   0,C   1,H   8)          119.8515         0.365500   
     19. A(N   2,C   1,H   8)          120.5772         0.340907   
     20. A(C   3,N   2,H   9)          102.7657         0.345142   
     21. A(C   1,N   2,H   9)          114.7819         0.344595   
     22. A(C   3,N   2,H  12)          102.8110         0.345152   
     23. A(C   1,N   2,H  12)          114.8960         0.344606   
     24. A(C   1,N   2,C   3)          119.3104         0.404463   
     25. A(H   9,N   2,H  12)           99.6430         0.296540   
     26. A(N   2,C   3,O   6)          112.2474         0.460044   
     27. A(N   2,C   3,N   4)          120.1931         0.420653   
     28. A(N   4,C   3,O   6)          127.5593         0.478255   
     29. A(C   3,N   4,H  10)          119.1391         0.361541   
     30. A(C   3,N   4,C   5)          123.2019         0.433900   
     31. A(C   5,N   4,H  10)          117.6530         0.359167   
     32. A(C   0,C   5,N   4)          116.2877         0.410035   
     33. A(N   4,C   5,O   7)          122.8224         0.472229   
     34. A(C   0,C   5,O   7)          120.8900         0.448847   
     35. D(N   2,C   1,C   0,H  11)    179.8668         0.041764   
     36. D(H   8,C   1,C   0,C   5)    179.9514         0.041764   
     37. D(N   2,C   1,C   0,C   5)     -0.1322         0.041764   
     38. D(H   8,C   1,C   0,H  11)     -0.0495         0.041764   
     39. D(C   3,N   2,C   1,H   8)   -179.3957         0.023739   
     40. D(H   9,N   2,C   1,C   0)   -121.8797         0.023739   
     41. D(C   3,N   2,C   1,C   0)      0.6885         0.023739   
     42. D(H  12,N   2,C   1,C   0)    123.4329         0.023739   
     43. D(H   9,N   2,C   1,H   8)     58.0361         0.023739   
     44. D(O   6,C   3,N   2,H   9)    -51.9630         0.024214   
     45. D(N   4,C   3,N   2,H  12)   -128.9522         0.024214   
     46. D(N   4,C   3,N   2,H   9)    127.8885         0.024214   
     47. D(N   4,C   3,N   2,C   1)     -0.4339         0.024214   
     48. D(O   6,C   3,N   2,C   1)    179.7146         0.024214   
     49. D(C   5,N   4,C   3,N   2)     -0.4302         0.035048   
     50. D(H  10,N   4,C   3,O   6)      0.3028         0.035048   
     51. D(H  10,N   4,C   3,N   2)   -179.5238         0.035048   
     52. D(C   5,N   4,C   3,O   6)    179.3964         0.035048   
     53. D(O   7,C   5,N   4,H  10)      0.0995         0.032229   
     54. D(O   7,C   5,N   4,C   3)   -179.0068         0.032229   
     55. D(C   0,C   5,N   4,H  10)   -179.9371         0.032229   
     56. D(C   0,C   5,N   4,C   3)      0.9566         0.032229   
     57. D(O   7,C   5,C   0,H  11)     -0.7082         0.014413   
     58. D(O   7,C   5,C   0,C   1)    179.2909         0.014413   
     59. D(N   4,C   5,C   0,H  11)    179.3277         0.014413   
     60. D(N   4,C   5,C   0,C   1)     -0.6732         0.014413   
    -----------------------------------------------------------------

Number of atoms                         .... 13
Number of degrees of freedom            .... 60


         *************************************************************
         *                GEOMETRY OPTIMIZATION CYCLE   1            *
         *************************************************************
---------------------------------
CARTESIAN COORDINATES (ANGSTROEM)
---------------------------------
  C      1.338780    0.515080   -0.017080
  C      1.245260   -0.812400    0.092680
  N     -0.024150   -1.419660    0.116200
  C     -1.172370   -0.617430    0.008880
  N     -1.056250    0.719790   -0.106360
  C      0.138810    1.364060   -0.117600
  O     -2.193050   -1.270750    0.037880
  O      0.235340    2.577570   -0.204660
  H      2.150690   -1.416360    0.164630
  H     -0.217630   -1.982490    0.955840
  H     -1.894310    1.283150   -0.175340
  H      2.294440    1.030830   -0.037580
  H     -0.176220   -2.133920   -0.608930

----------------------------
CARTESIAN COORDINATES (A.U.)
----------------------------
  NO LB      ZA    FRAG     MASS         X           Y           Z
   0 C     6.0000    0    12.011    2.529928    0.973360   -0.032277
   1 C     6.0000    0    12.011    2.353200   -1.535214    0.175140
   2 N     7.0000    0    14.007   -0.045637   -2.682769    0.219586
   3 C     6.0000    0    12.011   -2.215458   -1.166774    0.016781
   4 N     7.0000    0    14.007   -1.996023    1.360206   -0.200991
   5 C     6.0000    0    12.011    0.262313    2.577700   -0.222232
   6 O     8.0000    0    15.999   -4.144264   -2.401369    0.071583
   7 O     8.0000    0    15.999    0.444728    4.870901   -0.386751
   8 H     1.0000    0     1.008    4.064215   -2.676533    0.311106
   9 H     1.0000    0     1.008   -0.411261   -3.746363    1.806276
  10 H     1.0000    0     1.008   -3.579727    2.424802   -0.331345
  11 H     1.0000    0     1.008    4.335863    1.947986   -0.071016
  12 H     1.0000    0     1.008   -0.333008   -4.032524   -1.150711

--------------------------------
INTERNAL COORDINATES (ANGSTROEM)
--------------------------------
 C      0   0   0     0.000000000000     0.00000000     0.00000000
 C      1   0   0     1.335288882003     0.00000000     0.00000000
 N      2   1   0     1.407380419823   119.57115907     0.00000000
 C      3   2   1     1.404813056495   119.31044904     0.68851628
 N      4   3   2     1.347190202013   120.19312262   359.56613162
 C      5   4   3     1.357710784409   123.20192506   359.56982096
 O      4   3   2     1.212211072710   112.24738041   179.71462617
 O      6   5   4     1.220452377031   122.82236896   180.99322907
 H      2   1   3     1.090755687127   119.85153982   180.08361692
 H      3   2   1     1.029178045287   114.78190191   238.12029294
 H      5   4   3     1.012164657356   119.13913307   180.47615880
 H      1   2   3     1.086141955777   122.36044792   179.86684319
 H      3   2   1     1.029128830322   114.89596939   123.43288883

---------------------------
INTERNAL COORDINATES (A.U.)
---------------------------
 C      0   0   0     0.000000000000     0.00000000     0.00000000
 C      1   0   0     2.523330296655     0.00000000     0.00000000
 N      2   1   0     2.659563559708   119.57115907     0.00000000
 C      3   2   1     2.654711946133   119.31044904     0.68851628
 N      4   3   2     2.545820532107   120.19312262   359.56613162
 C      5   4   3     2.565701551604   123.20192506   359.56982096
 O      4   3   2     2.290746943928   112.24738041   179.71462617
 O      6   5   4     2.306320752081   122.82236896   180.99322907
 H      2   1   3     2.061229527687   119.85153982   180.08361692
 H      3   2   1     1.944864648636   114.78190191   238.12029294
 H      5   4   3     1.912714004837   119.13913307   180.47615880
 H      1   2   3     2.052510838981   122.36044792   179.86684319
 H      3   2   1     1.944771645831   114.89596939   123.43288883

---------------------
BASIS SET INFORMATION
---------------------
There are 4 groups of distinct atoms

 Group   1 Type C   : 7s4p1d contracted to 3s2p1d pattern {511/31/1}
 Group   2 Type N   : 7s4p1d contracted to 3s2p1d pattern {511/31/1}
 Group   3 Type O   : 7s4p1d contracted to 3s2p1d pattern {511/31/1}
 Group   4 Type H   : 4s1p contracted to 2s1p pattern {31/1}

Atom   0C    basis set group =>   1
Atom   1C    basis set group =>   1
Atom   2N    basis set group =>   2
Atom   3C    basis set group =>   1
Atom   4N    basis set group =>   2
Atom   5C    basis set group =>   1
Atom   6O    basis set group =>   3
Atom   7O    basis set group =>   3
Atom   8H    basis set group =>   4
Atom   9H    basis set group =>   4
Atom  10H    basis set group =>   4
Atom  11H    basis set group =>   4
Atom  12H    basis set group =>   4
---------------------------------
AUXILIARY/J BASIS SET INFORMATION
---------------------------------
There are 4 groups of distinct atoms

 Group   1 Type C   : 12s5p4d2f1g contracted to 6s4p3d1f1g pattern {711111/2111/211/2/1}
 Group   2 Type N   : 12s5p4d2f1g contracted to 6s4p3d1f1g pattern {711111/2111/211/2/1}
 Group   3 Type O   : 12s5p4d2f1g contracted to 6s4p3d1f1g pattern {711111/2111/211/2/1}
 Group   4 Type H   : 5s2p1d contracted to 3s1p1d pattern {311/2/1}

Atom   0C    basis set group =>   1
Atom   1C    basis set group =>   1
Atom   2N    basis set group =>   2
Atom   3C    basis set group =>   1
Atom   4N    basis set group =>   2
Atom   5C    basis set group =>   1
Atom   6O    basis set group =>   3
Atom   7O    basis set group =>   3
Atom   8H    basis set group =>   4
Atom   9H    basis set group =>   4
Atom  10H    basis set group =>   4
Atom  11H    basis set group =>   4
Atom  12H    basis set group =>   4


           ************************************************************
           *        Program running with 16 parallel MPI-processes    *
           *              working on a common directory               *
           ************************************************************
------------------------------------------------------------------------------
                             ORCA STARTUP CALCULATIONS
                           -- RI-GTO INTEGRALS CHOSEN --
------------------------------------------------------------------------------
------------------------------------------------------------------------------
                   ___                                                        
                  /   \      - P O W E R E D   B Y -                         
                 /     \                                                     
                 |  |  |   _    _      __       _____    __    __             
                 |  |  |  | |  | |    /  \     |  _  \  |  |  /  |          
                  \  \/   | |  | |   /    \    | | | |  |  | /  /          
                 / \  \   | |__| |  /  /\  \   | |_| |  |  |/  /          
                |  |  |   |  __  | /  /__\  \  |    /   |      \           
                |  |  |   | |  | | |   __   |  |    \   |  |\   \          
                \     /   | |  | | |  |  |  |  | |\  \  |  | \   \       
                 \___/    |_|  |_| |__|  |__|  |_| \__\ |__|  \__/        
                                                                              
                      - O R C A' S   B I G   F R I E N D -                    
                                      &                                       
                       - I N T E G R A L  F E E D E R -                       
                                                                              
 v1 FN, 2020, v2 2021, v3 2022-2024                                           
------------------------------------------------------------------------------


----------------------
SHARK INTEGRAL PACKAGE
----------------------

Number of atoms                             ...     13
Number of basis functions                   ...    137
Number of shells                            ...     63
Maximum angular momentum                    ...      2
Integral batch strategy                     ... SHARK/LIBINT Hybrid
RI-J (if used) integral strategy            ... SPLIT-RIJ (Revised 2003 algorithm where possible)
Printlevel                                  ...      1
Contraction scheme used                     ... SEGMENTED contraction
Prescreening option                         ... SCHWARTZ
   Thresh                                   ... 2.500e-11
   Tcut                                     ... 2.500e-12
   Tpresel                                  ... 2.500e-12 
Coulomb Range Separation                    ... NOT USED
Exchange Range Separation                   ... NOT USED
Multipole approximations                    ... NOT USED
Finite Nucleus Model                        ... NOT USED
CABS basis                                  ... NOT available
Auxiliary Coulomb fitting basis             ... AVAILABLE
   # of basis functions in Aux-J            ...    447
   # of shells in Aux-J                     ...    145
   Maximum angular momentum in Aux-J        ...      4
Auxiliary J/K fitting basis                 ... NOT available
Auxiliary Correlation fitting basis         ... NOT available
Auxiliary 'external' fitting basis          ... NOT available

Checking pre-screening integrals            ... done (  0.0 sec) Dimension = 63
   => SHARK Basis and OBASIS are compatible. Storing Pre-screening
Shell pair information
Shell pair cut-off parameter TPreSel        ...   2.5e-12
Total number of shell pairs                 ...      2016
Shell pairs after pre-screening             ...      1922
Total number of primitive shell pairs       ...      7500
Primitive shell pairs kept                  ...      5381
          la=0 lb=0:    560 shell pairs
          la=1 lb=0:    687 shell pairs
          la=1 lb=1:    224 shell pairs
          la=2 lb=0:    255 shell pairs
          la=2 lb=1:    161 shell pairs
          la=2 lb=2:     35 shell pairs

Checking whether 4 symmetric matrices of dimension 137 fit in memory
:Max Core in MB      =   4096.00
 MB in use           =      5.84
 MB left             =   4090.16
 MB needed           =      0.29
 Data fit in memory  = YES
Calculating RI/J V-Matrix + Cholesky decomp.... done (  0.0 sec)
Calculating Nuclear repulsion               ... done (  0.0 sec) ENN=    372.407887093553 Eh

Diagonalization of the overlap matrix:
Smallest eigenvalue                        ... 1.246e-03
Time for diagonalization                   ...    0.001 sec
Threshold for overlap eigenvalues          ... 1.000e-07
Number of eigenvalues below threshold      ... 0
Time for construction of square roots      ...    0.000 sec
Total time needed                          ...    0.002 sec

-------------------
DFT GRID GENERATION
-------------------

General Integration Accuracy     IntAcc      ... 4.388
Radial Grid Type                 RadialGrid  ... OptM3 with GC (2021)
Angular Grid (max. ang.)         AngularGrid ... 4 (Lebedev-302)
Angular grid pruning method      GridPruning ... 4 (adaptive)
Weight generation scheme         WeightScheme... mBecke (2022)
Basis function cutoff            BFCut       ... 1.0000e-11
Integration weight cutoff        WCut        ... 1.0000e-14
Partially contracted basis set               ... off
Rotationally invariant grid construction     ... off
Angular grids for H and He will be reduced by one unit

Total number of grid points                  ...    64347
Total number of batches                      ...     1012
Average number of points per batch           ...       63
Average number of grid points per atom       ...     4950

--------------------
COSX GRID GENERATION
--------------------

GRIDX 1
-------
General Integration Accuracy     IntAcc      ... 3.816
Radial Grid Type                 RadialGrid  ... OptM3 with GC (2021)
Angular Grid (max. ang.)         AngularGrid ... 1 (Lebedev-50)
Angular grid pruning method      GridPruning ... 4 (adaptive)
Weight generation scheme         WeightScheme... mBecke (2022)
Basis function cutoff            BFCut       ... 1.0000e-11
Integration weight cutoff        WCut        ... 1.0000e-14
Partially contracted basis set               ... on
Rotationally invariant grid construction     ... off
Angular grids for H and He will be reduced by one unit

Total number of grid points                  ...     8213
Total number of batches                      ...       71
Average number of points per batch           ...      115
Average number of grid points per atom       ...      632
UseSFitting                                  ... on

GRIDX 2
-------
General Integration Accuracy     IntAcc      ... 4.020
Radial Grid Type                 RadialGrid  ... OptM3 with GC (2021)
Angular Grid (max. ang.)         AngularGrid ... 2 (Lebedev-110)
Angular grid pruning method      GridPruning ... 4 (adaptive)
Weight generation scheme         WeightScheme... mBecke (2022)
Basis function cutoff            BFCut       ... 1.0000e-11
Integration weight cutoff        WCut        ... 1.0000e-14
Partially contracted basis set               ... on
Rotationally invariant grid construction     ... off
Angular grids for H and He will be reduced by one unit

Total number of grid points                  ...    18307
Total number of batches                      ...      149
Average number of points per batch           ...      122
Average number of grid points per atom       ...     1408
UseSFitting                                  ... on

GRIDX 3
-------
General Integration Accuracy     IntAcc      ... 4.338
Radial Grid Type                 RadialGrid  ... OptM3 with GC (2021)
Angular Grid (max. ang.)         AngularGrid ... 3 (Lebedev-194)
Angular grid pruning method      GridPruning ... 4 (adaptive)
Weight generation scheme         WeightScheme... mBecke (2022)
Basis function cutoff            BFCut       ... 1.0000e-11
Integration weight cutoff        WCut        ... 1.0000e-14
Partially contracted basis set               ... on
Rotationally invariant grid construction     ... off
Angular grids for H and He will be reduced by one unit

Total number of grid points                  ...    40375
Total number of batches                      ...      321
Average number of points per batch           ...      125
Average number of grid points per atom       ...     3106
UseSFitting                                  ... on
Grids setup in   0.3 sec
Initializing property integral containers    ... done (  0.0 sec)

SHARK setup successfully completed in   0.4 seconds

Maximum memory used throughout the entire STARTUP-calculation: 17.1 MB


           ************************************************************
           *        Program running with 16 parallel MPI-processes    *
           *              working on a common directory               *
           ************************************************************
-------------------------------------------------------------------------------
                                 ORCA GUESS
                   Start orbitals & Density for SCF / CASSCF
-------------------------------------------------------------------------------

------------
SCF SETTINGS
------------
Hamiltonian:
 Density Functional     Method          .... DFT(GTOs)
 Exchange Functional    Exchange        .... B88
   X-Alpha parameter    XAlpha          ....  0.666667
   Becke's b parameter  XBeta           ....  0.004200
 Correlation Functional Correlation     .... LYP
 LDA part of GGA corr.  LDAOpt          .... VWN-5
 Gradients option       PostSCFGGA      .... off
 Hybrid DFT is turned on
   Fraction HF Exchange ScalHFX         ....  0.200000
   Scaling of DF-GGA-X  ScalDFX         ....  0.720000
   Scaling of DF-GGA-C  ScalDFC         ....  0.810000
   Scaling of DF-LDA-C  ScalLDAC        ....  1.000000
   Perturbative correction              ....  0.000000
   NL short-range parameter             ....  4.800000
 RI-approximation to the Coulomb term is turned on
   Number of AuxJ basis functions       .... 447
   RIJ-COSX (HFX calculated with COS-X)).... on


General Settings:
 Integral files         IntName         .... Uracil_1
 Hartree-Fock type      HFTyp           .... RHF
 Total Charge           Charge          ....    1
 Multiplicity           Mult            ....    1
 Number of Electrons    NEL             ....   58
 Basis Dimension        Dim             ....  137
 Nuclear Repulsion      ENuc            ....    372.4078870936 Eh

Convergence Acceleration:
 AO-DIIS                CNVDIIS         .... on
   Start iteration      DIISMaxIt       ....    12
   Startup error        DIISStart       ....  0.200000
   # of expansion vecs  DIISMaxEq       ....     5
   Bias factor          DIISBfac        ....   1.050
   Max. coefficient     DIISMaxC        ....  10.000
 MO-DIIS                CNVKDIIS        .... off
 Trust-Rad. Augm. Hess. CNVTRAH         .... auto
   Auto Start mean grad. ratio tolernc. ....  1.125000
   Auto Start start iteration           ....    50
   Auto Start num. interpolation iter.  ....    10
   Max. Number of Micro iterations      ....    24
   Max. Number of Macro iterations      .... Maxiter - #DIIS iter
   Number of Davidson start vectors     ....     2
   Converg. threshold    (grad. norm)   ....   1.000e-05
   Grad. Scal. Fac. for Micro threshold ....   0.100
   Minimum threshold for Micro iter.    ....   1.000e-02
   NR start threshold (gradient norm)   ....   1.000e-04
   Initial trust radius                 ....   0.400
   Minimum AH scaling param. (alpha)    ....   1.000
   Maximum AH scaling param. (alpha)    .... 1000.000
   Quad. conv. algorithm                .... NR
   White noise on init. David. guess    .... on
   Maximum white noise                  ....   0.010
   Pseudo random numbers                .... off
   Inactive MOs                         .... canonical
   Orbital update algorithm             .... Taylor
   Preconditioner                       .... Diag
   Full preconditioner red. dimension   ....   250
 SOSCF                 CNVSOSCF           .... on
   Start iteration     SOSCFMaxIt         ....   150
   Startup grad/error  SOSCFStart         ....  0.003300
   Hessian update      SOSCFHessUp        .... L-BFGS
   Autom. constraints  SOSCFAutoConstrain .... off
 Level Shifting         CNVShift        .... on
   Level shift para.    LevelShift      ....    0.2500
   Turn off err/grad.   ShiftErr        ....    0.0010
 Zerner damping         CNVZerner       .... off
 Static damping         CNVDamp         .... on
   Fraction old density DampFac         ....    0.7000
   Max. Damping (<1)    DampMax         ....    0.9800
   Min. Damping (>=0)   DampMin         ....    0.0000
   Turn off err/grad.   DampErr         ....    0.1000

SCF Procedure:
 Maximum # iterations   MaxIter         ....   125
 SCF integral mode      SCFMode         .... Direct
   Integral package                     .... SHARK and LIBINT hybrid scheme
 Reset frequency        DirectResetFreq ....    20
 Integral Threshold     Thresh          ....  2.500e-11 Eh
 Primitive CutOff       TCut            ....  2.500e-12 Eh

Convergence Tolerance:
 Convergence Check Mode ConvCheckMode   .... Total+1el-Energy
 Convergence forced     ConvForced      .... 0
 Energy Change          TolE            ....  1.000e-08 Eh
 1-El. energy change                    ....  1.000e-05 Eh
 Orbital Gradient       TolG            ....  1.000e-05
 Orbital Rotation angle TolX            ....  1.000e-05
 DIIS Error             TolErr          ....  5.000e-07

------------------------------
INITIAL GUESS: MODEL POTENTIAL
------------------------------
Loading Hartree-Fock densities                     ... done
Calculating cut-offs                               ... done
Initializing the effective Hamiltonian             ... done
Setting up the integral package (SHARK)            ... done
Starting the Coulomb interaction                   ... done (   0.0 sec)
Making the grid                                    ... done (   0.1 sec)
Mapping shells                                     ... done
Starting the XC term evaluation                    ... done (   0.0 sec)
  promolecular density results
     # of electrons  =     58.995208318
     EX              =    -51.705181657
     EC              =     -2.062326475
     EX+EC           =    -53.767508132
Transforming the Hamiltonian                       ... done (   0.0 sec)
Diagonalizing the Hamiltonian                      ... done (   0.0 sec)
Back transforming the eigenvectors                 ... done (   0.0 sec)
Now organizing SCF variables                       ... done
                      ------------------
                      INITIAL GUESS DONE (   0.1 sec)
                      ------------------
             **** ENERGY FILE WAS UPDATED (Uracil_1.en.tmp) ****
Finished Guess after   0.4 sec
Maximum memory used throughout the entire GUESS-calculation: 8.3 MB


           ************************************************************
           *        Program running with 16 parallel MPI-processes    *
           *              working on a common directory               *
           ************************************************************

-------------------------------------------------------------------------------------------
                                      ORCA LEAN-SCF
                              memory conserving SCF solver
-------------------------------------------------------------------------------------------

----------------------------------------D-I-I-S--------------------------------------------
Iteration    Energy (Eh)           Delta-E    RMSDP     MaxDP     DIISErr   Damp  Time(sec)
-------------------------------------------------------------------------------------------
               ***  Starting incremental Fock matrix formation  ***
    1    -414.2663873980334870     0.00e+00  2.89e-02  1.97e-01  2.99e-01  0.700   0.2
    2    -414.4192907271129229    -1.53e-01  1.64e-02  1.06e-01  9.85e-02  0.700   0.1
                               ***Turning on AO-DIIS***
    3    -414.4619958200818814    -4.27e-02  5.24e-03  2.16e-02  4.31e-02  0.700   0.1
    4    -414.4931595892516611    -3.12e-02  9.86e-03  7.43e-02  2.12e-02  0.000   0.1
    5    -414.5675548817465028    -7.44e-02  2.60e-03  1.44e-02  9.03e-03  0.000   0.1
    6    -414.5682505297173179    -6.96e-04  8.31e-04  3.53e-03  3.46e-03  0.000   0.1
                              *** Initializing SOSCF ***
---------------------------------------S-O-S-C-F--------------------------------------
Iteration    Energy (Eh)           Delta-E    RMSDP     MaxDP     MaxGrad    Time(sec)
--------------------------------------------------------------------------------------
    7    -414.5683123844809757    -6.19e-05  3.29e-04  1.58e-03  1.80e-03     0.1
               *** Restarting incremental Fock matrix formation ***
    8    -414.5683097549626268     2.63e-06  2.50e-04  1.16e-03  2.26e-04     0.1
    9    -414.5683111729572943    -1.42e-06  1.39e-04  7.75e-04  2.33e-04     0.1
   10    -414.5683118883791280    -7.15e-07  8.90e-05  3.50e-04  1.34e-04     0.1
   11    -414.5683122069565911    -3.19e-07  2.75e-05  1.51e-04  4.15e-05     0.1
   12    -414.5683122372350340    -3.03e-08  2.10e-05  1.06e-04  4.94e-05     0.1
   13    -414.5683122609950146    -2.38e-08  1.30e-05  8.18e-05  2.15e-05     0.1
   14    -414.5683122694995859    -8.50e-09  7.15e-06  3.56e-05  1.02e-05     0.1
                 **** Energy Check signals convergence ****

               *****************************************************
               *                     SUCCESS                       *
               *           SCF CONVERGED AFTER  14 CYCLES          *
               *****************************************************

Recomputing exchange energy using gridx3       ... done (    0.206 sec)
Old exchange energy                            :    -10.383183485 Eh
New exchange energy                            :    -10.383212033 Eh
Exchange energy change after final integration :     -0.000028547 Eh
Total energy after final integration           :   -414.568340823 Eh
             **** ENERGY FILE WAS UPDATED (Uracil_1.en.tmp) ****

----------------
TOTAL SCF ENERGY
----------------

Total Energy       :       -414.56834082252686 Eh          -11280.97807 eV

Components:
Nuclear Repulsion  :        372.40788709355314 Eh           10133.73380 eV
Electronic Energy  :       -786.97619936864817 Eh          -21414.71109 eV
One Electron Energy:      -1289.14871411361537 Eh          -35079.51992 eV
Two Electron Energy:        502.17251474496726 Eh           13664.80883 eV

Virial components:
Potential Energy   :       -826.04982508530566 Eh          -22477.95850 eV
Kinetic Energy     :        411.48148426277885 Eh           11196.98043 eV
Virial Ratio       :          2.00750181157064

DFT components:
N(Alpha)           :       29.000009937899 electrons
N(Beta)            :       29.000009937899 electrons
N(Total)           :       58.000019875798 electrons
E(X)               :      -41.338394312460 Eh       
E(C)               :       -2.391479163347 Eh       
E(XC)              :      -43.729873475807 Eh       

---------------
SCF CONVERGENCE
---------------

  Last Energy change         ...    8.5046e-09  Tolerance :   1.0000e-08
  Last MAX-Density change    ...    3.5558e-05  Tolerance :   1.0000e-07
  Last RMS-Density change    ...    7.1476e-06  Tolerance :   5.0000e-09
  Last DIIS Error            ...    1.8032e-03  Tolerance :   5.0000e-07
  Last Orbital Gradient      ...    1.0212e-05  Tolerance :   1.0000e-05
  Last Orbital Rotation      ...    1.9334e-05  Tolerance :   1.0000e-05


----------------
ORBITAL ENERGIES
----------------

  NO   OCC          E(Eh)            E(eV) 
   0   2.0000     -19.340166      -526.2727 
   1   2.0000     -19.311597      -525.4953 
   2   2.0000     -14.700220      -400.0133 
   3   2.0000     -14.598832      -397.2544 
   4   2.0000     -10.562943      -287.4323 
   5   2.0000     -10.500472      -285.7324 
   6   2.0000     -10.466521      -284.8085 
   7   2.0000     -10.423726      -283.6440 
   8   2.0000      -1.329028       -36.1647 
   9   2.0000      -1.239524       -33.7292 
  10   2.0000      -1.227120       -33.3916 
  11   2.0000      -1.159570       -31.5535 
  12   2.0000      -1.016784       -27.6681 
  13   2.0000      -0.918911       -25.0048 
  14   2.0000      -0.897174       -24.4133 
  15   2.0000      -0.841712       -22.9042 
  16   2.0000      -0.831334       -22.6218 
  17   2.0000      -0.795610       -21.6496 
  18   2.0000      -0.743829       -20.2406 
  19   2.0000      -0.679956       -18.5025 
  20   2.0000      -0.665860       -18.1190 
  21   2.0000      -0.655190       -17.8286 
  22   2.0000      -0.628328       -17.0977 
  23   2.0000      -0.609434       -16.5835 
  24   2.0000      -0.603738       -16.4285 
  25   2.0000      -0.510489       -13.8911 
  26   2.0000      -0.507686       -13.8148 
  27   2.0000      -0.494904       -13.4670 
  28   2.0000      -0.461111       -12.5475 
  29   0.0000      -0.271972        -7.4007 
  30   0.0000      -0.228685        -6.2228 
  31   0.0000      -0.185604        -5.0505 
  32   0.0000      -0.137683        -3.7466 
  33   0.0000      -0.099736        -2.7139 
  34   0.0000      -0.096715        -2.6318 
  35   0.0000      -0.095549        -2.6000 
  36   0.0000      -0.051508        -1.4016 
  37   0.0000      -0.033823        -0.9204 
  38   0.0000      -0.006835        -0.1860 
  39   0.0000       0.013221         0.3598 
*Only the first 10 virtual orbitals were printed.

                    ********************************
                    * MULLIKEN POPULATION ANALYSIS *
                    ********************************

-----------------------
MULLIKEN ATOMIC CHARGES
-----------------------
   0 C :   -0.028471
   1 C :    0.081647
   2 N :    0.050162
   3 C :    0.127671
   4 N :   -0.014170
   5 C :    0.141029
   6 O :   -0.130794
   7 O :   -0.105932
   8 H :    0.102904
   9 H :    0.236566
  10 H :    0.205283
  11 H :    0.097866
  12 H :    0.236238
Sum of atomic charges:    1.0000000

--------------------------------
MULLIKEN REDUCED ORBITAL CHARGES
--------------------------------
  0 C s       :     3.256216  s :     3.256216
      pz      :     0.881836  p :     2.740378
      px      :     0.985341
      py      :     0.873201
      dz2     :     0.002807  d :     0.031877
      dxz     :     0.002003
      dyz     :     0.007304
      dx2y2   :     0.009487
      dxy     :     0.010277

  1 C s       :     3.060400  s :     3.060400
      pz      :     1.067896  p :     2.812111
      px      :     0.749713
      py      :     0.994503
      dz2     :     0.003922  d :     0.045841
      dxz     :     0.003852
      dyz     :     0.006798
      dx2y2   :     0.013192
      dxy     :     0.018078

  2 N s       :     3.275433  s :     3.275433
      pz      :     1.250991  p :     3.646837
      px      :     1.164430
      py      :     1.231416
      dz2     :     0.003273  d :     0.027568
      dxz     :     0.005638
      dyz     :     0.006304
      dx2y2   :     0.005546
      dxy     :     0.006807

  3 C s       :     2.994148  s :     2.994148
      pz      :     0.910441  p :     2.740083
      px      :     0.872649
      py      :     0.956993
      dz2     :     0.007658  d :     0.138098
      dxz     :     0.017096
      dyz     :     0.023679
      dx2y2   :     0.048149
      dxy     :     0.041517

  4 N s       :     3.316587  s :     3.316587
      pz      :     1.558503  p :     3.677235
      px      :     1.105898
      py      :     1.012834
      dz2     :     0.002264  d :     0.020348
      dxz     :     0.002061
      dyz     :     0.003443
      dx2y2   :     0.007324
      dxy     :     0.005256

  5 C s       :     2.990445  s :     2.990445
      pz      :     0.862685  p :     2.751311
      px      :     0.972324
      py      :     0.916302
      dz2     :     0.006651  d :     0.117214
      dxz     :     0.010243
      dyz     :     0.021528
      dx2y2   :     0.025782
      dxy     :     0.053009

  6 O s       :     3.748085  s :     3.748085
      pz      :     1.353233  p :     4.362533
      px      :     1.423105
      py      :     1.586195
      dz2     :     0.002294  d :     0.020176
      dxz     :     0.004890
      dyz     :     0.001717
      dx2y2   :     0.004701
      dxy     :     0.006574

  7 O s       :     3.746895  s :     3.746895
      pz      :     1.277380  p :     4.339907
      px      :     1.762404
      py      :     1.300123
      dz2     :     0.002190  d :     0.019130
      dxz     :     0.000087
      dyz     :     0.006163
      dx2y2   :     0.006569
      dxy     :     0.004121

  8 H s       :     0.873314  s :     0.873314
      pz      :     0.004524  p :     0.023782
      px      :     0.012670
      py      :     0.006588

  9 H s       :     0.717412  s :     0.717412
      pz      :     0.023562  p :     0.046022
      px      :     0.008143
      py      :     0.014317

 10 H s       :     0.751594  s :     0.751594
      pz      :     0.008715  p :     0.043124
      px      :     0.021243
      py      :     0.013166

 11 H s       :     0.878303  s :     0.878303
      pz      :     0.003503  p :     0.023831
      px      :     0.013695
      py      :     0.006634

 12 H s       :     0.717777  s :     0.717777
      pz      :     0.019986  p :     0.045985
      px      :     0.007823
      py      :     0.018176



                     *******************************
                     * LOEWDIN POPULATION ANALYSIS *
                     *******************************

----------------------
LOEWDIN ATOMIC CHARGES
----------------------
   0 C :    0.025476
   1 C :    0.027039
   2 N :    0.270386
   3 C :    0.092188
   4 N :    0.072939
   5 C :    0.067964
   6 O :   -0.111265
   7 O :   -0.083675
   8 H :    0.071134
   9 H :    0.170132
  10 H :    0.141566
  11 H :    0.086135
  12 H :    0.169980

-------------------------------
LOEWDIN REDUCED ORBITAL CHARGES
-------------------------------
  0 C s       :     2.885707  s :     2.885707
      pz      :     0.885159  p :     3.002816
      px      :     1.057800
      py      :     1.059857
      dz2     :     0.007485  d :     0.086000
      dxz     :     0.003693
      dyz     :     0.014705
      dx2y2   :     0.028347
      dxy     :     0.031770

  1 C s       :     2.850573  s :     2.850573
      pz      :     1.026809  p :     3.010383
      px      :     0.905503
      py      :     1.078071
      dz2     :     0.009034  d :     0.112006
      dxz     :     0.007019
      dyz     :     0.012647
      dx2y2   :     0.036318
      dxy     :     0.046988

  2 N s       :     2.997072  s :     2.997072
      pz      :     1.234640  p :     3.663331
      px      :     1.214793
      py      :     1.213898
      dz2     :     0.009442  d :     0.069211
      dxz     :     0.010624
      dyz     :     0.016625
      dx2y2   :     0.014583
      dxy     :     0.017937

  3 C s       :     2.793303  s :     2.793303
      pz      :     0.886148  p :     2.812904
      px      :     0.949234
      py      :     0.977522
      dz2     :     0.017238  d :     0.301605
      dxz     :     0.031979
      dyz     :     0.043614
      dx2y2   :     0.110219
      dxy     :     0.098555

  4 N s       :     3.038598  s :     3.038598
      pz      :     1.491693  p :     3.831004
      px      :     1.189181
      py      :     1.150130
      dz2     :     0.005632  d :     0.057459
      dxz     :     0.003937
      dyz     :     0.006931
      dx2y2   :     0.022138
      dxy     :     0.018820

  5 C s       :     2.822117  s :     2.822117
      pz      :     0.851688  p :     2.844304
      px      :     0.978042
      py      :     1.014574
      dz2     :     0.015635  d :     0.265615
      dxz     :     0.021108
      dyz     :     0.039669
      dx2y2   :     0.063608
      dxy     :     0.125594

  6 O s       :     3.550063  s :     3.550063
      pz      :     1.358587  p :     4.527083
      px      :     1.526138
      py      :     1.642358
      dz2     :     0.004852  d :     0.034120
      dxz     :     0.006028
      dyz     :     0.002325
      dx2y2   :     0.007668
      dxy     :     0.013246

  7 O s       :     3.558208  s :     3.558208
      pz      :     1.282418  p :     4.493218
      px      :     1.774713
      py      :     1.436087
      dz2     :     0.004563  d :     0.032249
      dxz     :     0.000114
      dyz     :     0.007692
      dx2y2   :     0.013666
      dxy     :     0.006214

  8 H s       :     0.854528  s :     0.854528
      pz      :     0.015567  p :     0.074338
      px      :     0.039350
      py      :     0.019420

  9 H s       :     0.715820  s :     0.715820
      pz      :     0.055254  p :     0.114048
      px      :     0.020928
      py      :     0.037866

 10 H s       :     0.735663  s :     0.735663
      pz      :     0.032061  p :     0.122770
      px      :     0.057219
      py      :     0.033490

 11 H s       :     0.842720  s :     0.842720
      pz      :     0.011428  p :     0.071145
      px      :     0.041323
      py      :     0.018394

 12 H s       :     0.715984  s :     0.715984
      pz      :     0.046023  p :     0.114036
      px      :     0.019972
      py      :     0.048041



                      *****************************
                      * MAYER POPULATION ANALYSIS *
                      *****************************

  NA   - Mulliken gross atomic population
  ZA   - Total nuclear charge
  QA   - Mulliken gross atomic charge
  VA   - Mayer's total valence
  BVA  - Mayer's bonded valence
  FA   - Mayer's free valence

  ATOM       NA         ZA         QA         VA         BVA        FA
  0 C      6.0285     6.0000    -0.0285     3.8842     3.8842    -0.0000
  1 C      5.9184     6.0000     0.0816     3.7931     3.7931    -0.0000
  2 N      6.9498     7.0000     0.0502     3.5759     3.5759    -0.0000
  3 C      5.8723     6.0000     0.1277     4.3868     4.3868    -0.0000
  4 N      7.0142     7.0000    -0.0142     3.2303     3.2303    -0.0000
  5 C      5.8590     6.0000     0.1410     4.3210     4.3210     0.0000
  6 O      8.1308     8.0000    -0.1308     2.3661     2.3661    -0.0000
  7 O      8.1059     8.0000    -0.1059     2.3608     2.3608     0.0000
  8 H      0.8971     1.0000     0.1029     0.9866     0.9866    -0.0000
  9 H      0.7634     1.0000     0.2366     0.9552     0.9552    -0.0000
 10 H      0.7947     1.0000     0.2053     0.9902     0.9902    -0.0000
 11 H      0.9021     1.0000     0.0979     1.0004     1.0004     0.0000
 12 H      0.7638     1.0000     0.2362     0.9558     0.9558    -0.0000

  Mayer bond orders larger than 0.100000
B(  0-C ,  1-C ) :   1.8350 B(  0-C ,  5-C ) :   0.9960 B(  0-C , 11-H ) :   0.9668 
B(  1-C ,  2-N ) :   0.9291 B(  1-C ,  8-H ) :   0.9443 B(  2-N ,  3-C ) :   0.8782 
B(  2-N ,  9-H ) :   0.8849 B(  2-N , 12-H ) :   0.8848 B(  3-C ,  4-N ) :   1.2076 
B(  3-C ,  6-O ) :   2.1982 B(  4-N ,  5-C ) :   1.0539 B(  4-N , 10-H ) :   0.8784 
B(  5-C ,  7-O ) :   2.1778 

-------
TIMINGS
-------

Total SCF time: 0 days 0 hours 0 min 2 sec 

Total time                  ....       2.114 sec
Sum of individual times     ....       1.956 sec  ( 92.5%)

SCF preparation             ....       0.348 sec  ( 16.4%)
Fock matrix formation       ....       1.502 sec  ( 71.0%)
  Startup                   ....       0.002 sec  (  0.1% of F)
  Split-RI-J                ....       0.158 sec  ( 10.5% of F)
  Chain of spheres X        ....       1.133 sec  ( 75.4% of F)
  XC integration            ....       0.284 sec  ( 18.9% of F)
    XC Preparation          ....       0.000 sec  (  0.0% of XC)
    Basis function eval.    ....       0.065 sec  ( 23.0% of XC)
    Density eval.           ....       0.035 sec  ( 12.2% of XC)
    XC-Functional eval.     ....       0.011 sec  (  4.0% of XC)
    XC-Potential eval.      ....       0.032 sec  ( 11.2% of XC)
Diagonalization             ....       0.000 sec  (  0.0%)
Density matrix formation    ....       0.014 sec  (  0.6%)
Total Energy calculation    ....       0.008 sec  (  0.4%)
Population analysis         ....       0.005 sec  (  0.2%)
Orbital Transformation      ....       0.009 sec  (  0.4%)
Orbital Orthonormalization  ....       0.000 sec  (  0.0%)
DIIS solution               ....       0.040 sec  (  1.9%)
SOSCF solution              ....       0.031 sec  (  1.5%)
Finished LeanSCF after   2.1 sec

Maximum memory used throughout the entire LEANSCF-calculation: 11.2 MB


           ************************************************************
           *        Program running with 16 parallel MPI-processes    *
           *              working on a common directory               *
           ************************************************************

------------------------------------------------------------------------------
                         ORCA PROPERTY INTEGRAL CALCULATIONS
------------------------------------------------------------------------------

GBWName                                   ... Uracil_1.gbw
Number of atoms                           ...     13
Number of basis functions                 ...    137
Max core memory                           ...   4096 MB

Dipole integrals                          ... YES
Quadrupole integrals                      ...  NO
Linear momentum integrals                 ...  NO
Angular momentum integrals                ...  NO
Higher moments length integrals           ...  NO
Higher moments velocity integrals         ...  NO
Kinetic energy integrals                  ...  NO
GIAO right hand sides                     ...  NO
GIAO dipole derivative integrals          ...  NO
SOC integrals                             ...  NO
EPR diamagnetic integrals (GIAO)          ...  NO
EPR gauge integrals                       ...  NO
Field gradient integrals                  ...  NO (   0 nuclei)
Spin-dipole/Fermi contact integrals       ...  NO (   0 nuclei)
Contact density integrals                 ...  NO (   0 nuclei)
Nucleus-orbit integrals                   ...  NO (   0 nuclei)
Geometric perturbations                   ...  NO (  13 nuclei)

Choice of electric origin   ... Center of mass
Position of electric origin ... ( -0.4287,  0.2215, -0.0439) 
Choice of magnetic origin   ... GIAO
Position of magnetic origin ... (  0.0000,  0.0000,  0.0000) 

Calculating integrals                     ... Electric Dipole (Length)     done (  0.0 sec)

Property integrals calculated in   0.0 sec

Maximum memory used throughout the entire PROPINT-calculation: 8.5 MB

-------------------------   --------------------
FINAL SINGLE POINT ENERGY      -414.568340822527
-------------------------   --------------------



           ************************************************************
           *        Program running with 16 parallel MPI-processes    *
           *              working on a common directory               *
           ************************************************************
------------------------------------------------------------------------------
                         ORCA SCF GRADIENT CALCULATION
------------------------------------------------------------------------------

Nuc. rep. gradient        (SHARK) ... done (  0.0 sec)
HCore & Overlap gradient  (SHARK) ... done (  0.0 sec)
Split-RIJ-J gradient      (SHARK) ... done (  0.1 sec)
done (  0.6 sec)
XC gradient                       ... done (  0.1 sec)

------------------
CARTESIAN GRADIENT
------------------

   1   C   :    0.004659417    0.011038467   -0.000628630
   2   C   :   -0.050775703   -0.025732181    0.000983859
   3   N   :   -0.026390826    0.038759743   -0.004409217
   4   C   :    0.102270686   -0.004701856    0.003447309
   5   N   :    0.007905553    0.020938291   -0.001565436
   6   C   :   -0.039645473   -0.061720076    0.003367235
   7   O   :   -0.005816657   -0.019216766    0.001699487
   8   O   :    0.007937317    0.023916211   -0.001342075
   9   H   :    0.004948415    0.009610663   -0.000771599
  10   H   :   -0.005878476    0.004236841   -0.010933967
  11   H   :    0.010856223   -0.002437782    0.000562551
  12   H   :   -0.003646988   -0.000790874   -0.000039300
  13   H   :   -0.006423489    0.006099319    0.009629783

Difference to translation invariance:
           :   -0.0000000001    0.0000000000   -0.0000000000

Difference to rotation invariance:
           :    0.0001596488   -0.0000383822   -0.0001531336

Norm of the Cartesian gradient     ...    0.1537339469
RMS gradient                       ...    0.0246171331
MAX gradient                       ...    0.1022706860

-------
TIMINGS
-------

Total SCF gradient time     ....        0.771 sec

Densities                   ....       0.000 sec  (  0.0%)
One electron gradient       ....       0.008 sec  (  1.0%)
RI-J Coulomb gradient       ....       0.064 sec  (  8.3%)
COSX gradient               ....       0.598 sec  ( 77.6%)
XC gradient                 ....       0.100 sec  ( 13.0%)

Maximum memory used throughout the entire SCFGRAD-calculation: 14.4 MB
------------------------------------------------------------------------------
                         ORCA GEOMETRY RELAXATION STEP
------------------------------------------------------------------------------

Reading the OPT-File                    .... done
Getting information on internals        .... done
Copying old internal coords+grads       .... done
Making the new internal coordinates     .... (2022 redundants) done
Validating the new internal coordinates .... (2022 redundants) done
Calculating the B-matrix                .... done
Calculating the G,G- and P matrices     .... done
Transforming gradient to internals      .... done
Projecting the internal gradient        .... done
Number of atoms                         ....  13
Number of internal coordinates          ....  60
Current Energy                          ....  -414.568340823 Eh
Current gradient norm                   ....     0.153733947 Eh/bohr
Maximum allowed component of the step   ....  0.300
Current trust radius                    ....  0.300
Evaluating the initial hessian          ....  (Almloef) done
Projecting the Hessian                  .... done
Forming the augmented Hessian           .... done
Diagonalizing the augmented Hessian     .... done
Last element of RFO vector              ....  0.976523143
Lowest eigenvalues of augmented Hessian:
 -0.025795325  0.021547287  0.023773814  0.027396951  0.028657522
Length of the computed step             ....  0.220591306
The final length of the internal step   ....  0.220591306
Converting the step to Cartesian space:
 Initial RMS(Int)=    0.0284782151
Transforming coordinates:
 Iter   0:  RMS(Cart)=    0.0497603639 RMS(Int)=    0.0284626095
done
Storing new coordinates                 .... done

                                .--------------------.
          ----------------------|Geometry convergence|-------------------------
          Item                value                   Tolerance       Converged
          ---------------------------------------------------------------------
          RMS gradient        0.0154047825            0.0001000000      NO
          MAX gradient        0.0803654631            0.0003000000      NO
          RMS step            0.0284782151            0.0020000000      NO
          MAX step            0.1458220790            0.0040000000      NO
          -------------------------------------------------------------------------
          ........................................................
          Max(Bonds)      0.0772      Max(Angles)    3.32
          Max(Dihed)        0.75      Max(Improp)    0.00
          ---------------------------------------------------------------------

The optimization has not yet converged - more geometry cycles are needed


    ---------------------------------------------------------------------------
                         Redundant Internal Coordinates
                            (Angstroem and degrees)

        Definition                    Value    dE/dq     Step     New-Value
    ----------------------------------------------------------------------------
     1. B(C   1,C   0)                1.3353 -0.001411  0.0004    1.3357   
     2. B(N   2,C   1)                1.4074 -0.041643  0.0399    1.4473   
     3. B(C   3,N   2)                1.4048 -0.080365  0.0772    1.4820   
     4. B(N   4,C   3)                1.3472 -0.008771  0.0074    1.3546   
     5. B(C   5,N   4)                1.3577 -0.046500  0.0376    1.3954   
     6. B(C   5,C   0)                1.4734 -0.013072  0.0135    1.4869   
     7. B(O   6,C   3)                1.2122  0.015296 -0.0074    1.2049   
     8. B(O   7,C   5)                1.2205  0.024504 -0.0121    1.2083   
     9. B(H   8,C   1)                1.0908 -0.001265  0.0017    1.0925   
    10. B(H   9,N   2)                1.0292 -0.010130  0.0125    1.0417   
    11. B(H  10,N   4)                1.0122 -0.010384  0.0121    1.0242   
    12. B(H  11,C   0)                1.0861 -0.003584  0.0048    1.0910   
    13. B(H  12,N   2)                1.0291 -0.010072  0.0124    1.0415   
    14. A(C   5,C   0,H  11)          116.21  0.002596   -0.22    115.99   
    15. A(C   1,C   0,H  11)          122.36  0.004742   -0.52    121.84   
    16. A(C   1,C   0,C   5)          121.43 -0.007338    0.74    122.17   
    17. A(C   0,C   1,N   2)          119.57 -0.001250    0.03    119.60   
    18. A(C   0,C   1,H   8)          119.85 -0.010473    1.66    121.52   
    19. A(N   2,C   1,H   8)          120.58  0.011722   -1.69    118.89   
    20. A(C   3,N   2,H   9)          102.77 -0.004644    0.98    103.75   
    21. A(C   1,N   2,H   9)          114.78  0.006593   -1.35    113.44   
    22. A(C   3,N   2,H  12)          102.81 -0.005412    0.99    103.80   
    23. A(C   1,N   2,H  12)          114.90  0.007602   -1.40    113.50   
    24. A(C   1,N   2,C   3)          119.31 -0.002258    0.39    119.70   
    25. A(H   9,N   2,H  12)           99.64 -0.003872    0.78    100.43   
    26. A(N   2,C   3,O   6)          112.25 -0.028060    3.32    115.57   
    27. A(N   2,C   3,N   4)          120.19  0.026060   -3.11    117.08   
    28. A(N   4,C   3,O   6)          127.56  0.002001   -0.21    127.35   
    29. A(C   3,N   4,H  10)          119.14  0.011179   -1.57    117.57   
    30. A(C   3,N   4,C   5)          123.20 -0.014654    2.01    125.21   
    31. A(C   5,N   4,H  10)          117.65  0.003474   -0.43    117.22   
    32. A(C   0,C   5,N   4)          116.29 -0.000564   -0.05    116.24   
    33. A(N   4,C   5,O   7)          122.82  0.007226   -0.79    122.03   
    34. A(C   0,C   5,O   7)          120.89 -0.006663    0.84    121.73   
    35. D(N   2,C   1,C   0,H  11)    179.87 -0.000307    0.08    179.95   
    36. D(H   8,C   1,C   0,C   5)    179.95  0.000551   -0.08    179.87   
    37. D(N   2,C   1,C   0,C   5)     -0.13 -0.000222    0.06     -0.07   
    38. D(H   8,C   1,C   0,H  11)     -0.05  0.000466   -0.07     -0.12   
    39. D(C   3,N   2,C   1,H   8)   -179.40 -0.000687    0.08   -179.32   
    40. D(H   9,N   2,C   1,C   0)   -121.88  0.002609   -0.57   -122.45   
    41. D(C   3,N   2,C   1,C   0)      0.69  0.000111   -0.07      0.61   
    42. D(H  12,N   2,C   1,C   0)    123.43 -0.002540    0.38    123.82   
    43. D(H   9,N   2,C   1,H   8)     58.04  0.001812   -0.42     57.62   
    44. D(O   6,C   3,N   2,H   9)    -51.96  0.002444   -0.59    -52.55   
    45. D(N   4,C   3,N   2,H  12)   -128.95 -0.003791    0.75   -128.20   
    46. D(N   4,C   3,N   2,H   9)    127.89  0.003209   -0.65    127.24   
    47. D(N   4,C   3,N   2,C   1)     -0.43  0.000046    0.02     -0.41   
    48. D(O   6,C   3,N   2,C   1)    179.71 -0.000719    0.08    179.80   
    49. D(C   5,N   4,C   3,N   2)     -0.43 -0.000273    0.06     -0.37   
    50. D(H  10,N   4,C   3,O   6)      0.30  0.000661   -0.13      0.18   
    51. D(H  10,N   4,C   3,N   2)   -179.52 -0.000192   -0.06   -179.59   
    52. D(C   5,N   4,C   3,O   6)    179.40  0.000581   -0.01    179.39   
    53. D(O   7,C   5,N   4,H  10)      0.10  0.000165   -0.05      0.05   
    54. D(O   7,C   5,N   4,C   3)   -179.01  0.000176   -0.16   -179.16   
    55. D(C   0,C   5,N   4,H  10)   -179.94  0.000106    0.05   -179.89   
    56. D(C   0,C   5,N   4,C   3)      0.96  0.000116   -0.06      0.90   
    57. D(O   7,C   5,C   0,H  11)     -0.71  0.000038    0.09     -0.62   
    58. D(O   7,C   5,C   0,C   1)    179.29 -0.000042    0.11    179.40   
    59. D(N   4,C   5,C   0,H  11)    179.33  0.000091   -0.00    179.33   
    60. D(N   4,C   5,C   0,C   1)     -0.67  0.000011    0.02     -0.66   
    ----------------------------------------------------------------------------

Geometry step timings:
Preparation and reading OPT file:      0.000 s ( 1.794 %)
Internal coordinates            :      0.000 s ( 1.914 %)
B/P matrices and projection     :      0.000 s (28.589 %)
Hessian update/contruction      :      0.000 s (13.158 %)
Making the step                 :      0.000 s (26.555 %)
Converting the step to Cartesian:      0.000 s ( 4.306 %)
Storing new data                :      0.000 s ( 2.033 %)
Checking convergence            :      0.000 s ( 2.033 %)
Final printing                  :      0.000 s (19.617 %)
Total time                      :      0.001 s

Time for energy+gradient        :      5.416 s
Time for complete geometry iter :      5.878 s

         *************************************************************
         *                GEOMETRY OPTIMIZATION CYCLE   2            *
         *************************************************************
---------------------------------
CARTESIAN COORDINATES (ANGSTROEM)
---------------------------------
  C      1.361286    0.522707   -0.016507
  C      1.282038   -0.805891    0.094195
  N     -0.016464   -1.444382    0.118710
  C     -1.242615   -0.619411    0.007073
  N     -1.076994    0.720425   -0.106117
  C      0.151868    1.381484   -0.118260
  O     -2.282400   -1.227617    0.031992
  O      0.231856    2.583855   -0.207427
  H      2.177503   -1.427588    0.166167
  H     -0.180328   -2.017110    0.973233
  H     -1.920037    1.297743   -0.177163
  H      2.320231    1.042544   -0.037874
  H     -0.136603   -2.169291   -0.619462

----------------------------
CARTESIAN COORDINATES (A.U.)
----------------------------
  NO LB      ZA    FRAG     MASS         X           Y           Z
   0 C     6.0000    0    12.011    2.572457    0.987773   -0.031194
   1 C     6.0000    0    12.011    2.422700   -1.522913    0.178002
   2 N     7.0000    0    14.007   -0.031113   -2.729486    0.224330
   3 C     6.0000    0    12.011   -2.348202   -1.170517    0.013365
   4 N     7.0000    0    14.007   -2.035223    1.361406   -0.200532
   5 C     6.0000    0    12.011    0.286989    2.610627   -0.223480
   6 O     8.0000    0    15.999   -4.313110   -2.319860    0.060457
   7 O     8.0000    0    15.999    0.438145    4.882779   -0.391980
   8 H     1.0000    0     1.008    4.114884   -2.697750    0.314010
   9 H     1.0000    0     1.008   -0.340770   -3.811785    1.839144
  10 H     1.0000    0     1.008   -3.628345    2.452379   -0.334789
  11 H     1.0000    0     1.008    4.384600    1.970124   -0.071571
  12 H     1.0000    0     1.008   -0.258142   -4.099366   -1.170613

--------------------------------
INTERNAL COORDINATES (ANGSTROEM)
--------------------------------
 C      0   0   0     0.000000000000     0.00000000     0.00000000
 C      1   0   0     1.335555175253     0.00000000     0.00000000
 N      2   1   0     1.447196626262   119.57336941     0.00000000
 C      3   2   1     1.482054383431   119.70044590     0.61512923
 N      4   3   2     1.354770582960   117.10711869   359.58743439
 C      5   4   3     1.395438063591   125.23215513   359.62590911
 O      4   3   2     1.204860078979   115.55862782   179.79745695
 O      6   5   4     1.208322817559   122.02797132   180.83644140
 H      2   1   3     1.092494814402   121.52846944   179.93550773
 H      3   2   1     1.041671158235   113.42925130   237.56209129
 H      5   4   3     1.024239303607   117.55589304   180.41487649
 H      1   2   3     1.090991599152   121.85546827   179.94892288
 H      3   2   1     1.041549074222   113.48784988   123.80233537

---------------------------
INTERNAL COORDINATES (A.U.)
---------------------------
 C      0   0   0     0.000000000000     0.00000000     0.00000000
 C      1   0   0     2.523833517969     0.00000000     0.00000000
 N      2   1   0     2.734805285571   119.57336941     0.00000000
 C      3   2   1     2.800676900262   119.70044590     0.61512923
 N      4   3   2     2.560145376088   117.10711869   359.58743439
 C      5   4   3     2.636995777037   125.23215513   359.62590911
 O      4   3   2     2.276855578964   115.55862782   179.79745695
 O      6   5   4     2.283399206555   122.02797132   180.83644140
 H      2   1   3     2.064516001950   121.52846944   179.93550773
 H      3   2   1     1.968473210668   113.42925130   237.56209129
 H      5   4   3     1.935531779415   117.55589304   180.41487649
 H      1   2   3     2.061675336806   121.85546827   179.94892288
 H      3   2   1     1.968242505319   113.48784988   123.80233537



           ************************************************************
           *        Program running with 16 parallel MPI-processes    *
           *              working on a common directory               *
           ************************************************************
------------------------------------------------------------------------------
                   ___                                                        
                  /   \      - P O W E R E D   B Y -                         
                 /     \                                                     
                 |  |  |   _    _      __       _____    __    __             
                 |  |  |  | |  | |    /  \     |  _  \  |  |  /  |          
                  \  \/   | |  | |   /    \    | | | |  |  | /  /          
                 / \  \   | |__| |  /  /\  \   | |_| |  |  |/  /          
                |  |  |   |  __  | /  /__\  \  |    /   |      \           
                |  |  |   | |  | | |   __   |  |    \   |  |\   \          
                \     /   | |  | | |  |  |  |  | |\  \  |  | \   \       
                 \___/    |_|  |_| |__|  |__|  |_| \__\ |__|  \__/        
                                                                              
                      - O R C A' S   B I G   F R I E N D -                    
                                      &                                       
                       - I N T E G R A L  F E E D E R -                       
                                                                              
 v1 FN, 2020, v2 2021, v3 2022-2024                                           
------------------------------------------------------------------------------


----------------------
SHARK INTEGRAL PACKAGE
----------------------

Number of atoms                             ...     13
Number of basis functions                   ...    137
Number of shells                            ...     63
Maximum angular momentum                    ...      2
Integral batch strategy                     ... SHARK/LIBINT Hybrid
RI-J (if used) integral strategy            ... SPLIT-RIJ (Revised 2003 algorithm where possible)
Printlevel                                  ...      1
Contraction scheme used                     ... SEGMENTED contraction
Prescreening option                         ... SCHWARTZ
   Thresh                                   ... 2.500e-11
   Tcut                                     ... 2.500e-12
   Tpresel                                  ... 2.500e-12 
Coulomb Range Separation                    ... NOT USED
Exchange Range Separation                   ... NOT USED
Multipole approximations                    ... NOT USED
Finite Nucleus Model                        ... NOT USED
CABS basis                                  ... NOT available
Auxiliary Coulomb fitting basis             ... AVAILABLE
   # of basis functions in Aux-J            ...    447
   # of shells in Aux-J                     ...    145
   Maximum angular momentum in Aux-J        ...      4
Auxiliary J/K fitting basis                 ... NOT available
Auxiliary Correlation fitting basis         ... NOT available
Auxiliary 'external' fitting basis          ... NOT available

Checking pre-screening integrals            ... done (  0.0 sec) Dimension = 63
   => SHARK Basis and OBASIS are compatible. Storing Pre-screening
Shell pair information
Shell pair cut-off parameter TPreSel        ...   2.5e-12
Total number of shell pairs                 ...      2016
Shell pairs after pre-screening             ...      1917
Total number of primitive shell pairs       ...      7500
Primitive shell pairs kept                  ...      5358
          la=0 lb=0:    559 shell pairs
          la=1 lb=0:    683 shell pairs
[...]
      6       0.019251   0.016533  -0.000955  -0.008349  -0.000701   0.001019
      7       0.067343  -0.040954   0.005162  -0.036043   0.000490  -0.000669
      8      -0.005309   0.003991  -0.000485   0.002890  -0.000062   0.000088
      9      -0.003129  -0.030850  -0.039562   0.590792  -0.000670   0.000198
     10       0.006067   0.018903  -0.026401   0.527523   0.000082   0.000084
     11      -0.000638  -0.002486   0.001209  -0.029319  -0.000025  -0.000002
     12      -0.000033  -0.001107   0.003730  -0.064450   0.000202   0.000310
     13      -0.001005  -0.021271   0.060603  -0.145866  -0.000098  -0.000010
     14       0.000086   0.001798  -0.005121   0.010813   0.000014   0.000009
     15      -0.000703  -0.010574   0.046580  -0.017963   0.000881   0.001495
     16       0.000061  -0.044801  -0.732104  -0.061617   0.000009  -0.001398
     17      -0.000025   0.003482   0.063484   0.004749   0.000021   0.000161
     18       0.000756   0.021479   0.024864  -0.401313  -0.000033   0.000114
     19       0.000949   0.006206   0.011746  -0.245554  -0.000009   0.000008
     20      -0.000060   0.000055  -0.000327   0.010188  -0.000000   0.000002
     21       0.000950  -0.008725   0.003103   0.007935  -0.000121  -0.000130
     22      -0.002921   0.079900   0.475374   0.047601  -0.000020   0.000464
     23       0.000273  -0.007020  -0.040249  -0.003825  -0.000001  -0.000043
     24       0.005076  -0.479638   0.030397  -0.033271  -0.661005   0.403166
     25      -0.003461  -0.046110  -0.004818  -0.007744   0.526663  -0.324906
     26       0.000439  -0.008851   0.001181  -0.000223  -0.063261   0.038906
     27      -0.088744  -0.208056   0.001148   0.151038   0.004991  -0.001034
     28      -0.573120  -0.148714   0.015322  -0.068768   0.004339   0.004698
     29      -0.400604  -0.095599   0.013214   0.023382  -0.003374  -0.010306
     30       0.000980   0.014551  -0.266563   0.168902   0.000597   0.002343
     31      -0.000456  -0.000461  -0.289995   0.174373  -0.000021  -0.000874
     32       0.000073   0.000435   0.017638  -0.010424   0.000022   0.000140
     33       0.020431  -0.357867   0.124143   0.005650   0.464196   0.750977
     34      -0.010546   0.137031  -0.187234  -0.009931   0.241599   0.396570
     35       0.001463  -0.021453   0.019368   0.001019  -0.007985  -0.013422
     36      -0.113717  -0.213705   0.001924   0.151958   0.004821  -0.001570
     37      -0.495766  -0.131062   0.012828  -0.071058   0.004895   0.006361
     38       0.487819   0.108363  -0.015590  -0.002968   0.002849   0.009241
                 36         37         38    
      0       0.001683  -0.000016   0.000765
      1       0.001801   0.000016   0.000103
      2      -0.000106   0.000286   0.000012
      3      -0.001100   0.000030  -0.000085
      4      -0.000556  -0.000078  -0.000134
      5       0.000013  -0.000897   0.000009
      6      -0.008887  -0.002155   0.000372
      7      -0.059411   0.007287  -0.001410
      8       0.005302   0.080488   0.000133
      9       0.002905   0.000003   0.000385
     10      -0.000497  -0.000044  -0.000661
     11       0.000119  -0.000527   0.000066
     12       0.000356  -0.000006  -0.058782
     13       0.000097   0.000013   0.043931
     14       0.000002   0.000140  -0.005389
     15       0.000009   0.000004   0.000393
     16      -0.000719  -0.000008  -0.000701
     17       0.000061  -0.000129   0.000072
     18      -0.000932   0.000002  -0.000548
     19      -0.000218   0.000006  -0.000348
     20      -0.000007   0.000050   0.000015
     21      -0.000002  -0.000000  -0.000118
     22       0.000332   0.000000   0.000399
     23      -0.000028   0.000019  -0.000038
     24      -0.001414   0.000023  -0.000528
     25       0.001872  -0.000112   0.000798
     26      -0.000203  -0.001363  -0.000081
     27       0.074586   0.073561   0.001289
     28       0.361070   0.377968   0.004682
     29      -0.605632  -0.586104  -0.008009
     30      -0.010578   0.000033   0.804164
     31       0.009573   0.000023  -0.585222
     32      -0.001111   0.000823   0.072365
     33      -0.013827   0.000023  -0.000951
     34      -0.006141   0.000098  -0.001326
     35       0.000154   0.000934   0.000087
     36       0.042935  -0.043879   0.000875
     37       0.455684  -0.478162   0.006000
     38       0.532625  -0.520678   0.007145


-----------
IR SPECTRUM
-----------

 Mode   freq       eps      Int      T**2         TX        TY        TZ
       cm**-1   L/(mol*cm) km/mol    a.u.
----------------------------------------------------------------------------
  6:     69.22   0.002730   13.80  0.012306  ( 0.003143 -0.009719 -0.110461)
  7:    132.08   0.000668    3.37  0.001577  ( 0.001201 -0.003350 -0.039556)
  8:    309.99   0.000565    2.85  0.000569  ( 0.000579 -0.001956 -0.023758)
  9:    387.94   0.006056   30.61  0.004872  (-0.052818  0.045306 -0.005408)
 10:    451.27   0.003556   17.97  0.002459  ( 0.004907 -0.049153  0.004322)
 11:    510.59   0.006248   31.57  0.003819  ( 0.055942  0.026239 -0.000769)
 12:    529.78   0.000381    1.92  0.000224  ( 0.009062 -0.011835  0.001421)
 13:    557.06   0.003670   18.55  0.002056  (-0.001185  0.003913  0.045157)
 14:    629.83   0.003989   20.16  0.001977  ( 0.026790 -0.035284  0.003725)
 15:    669.90   0.004765   24.08  0.002220  ( 0.001264 -0.004100 -0.046919)
 16:    745.76   0.008253   41.71  0.003454  (-0.001646  0.004959  0.058534)
 17:    815.79   0.003632   18.35  0.001389  (-0.034448  0.014096  0.001968)
 18:    817.30   0.021547  108.89  0.008227  ( 0.000889 -0.007103 -0.090421)
 19:    931.39   0.000484    2.45  0.000162  (-0.010384 -0.007365  0.000267)
 20:    939.02   0.000026    0.13  0.000009  (-0.000107  0.000199  0.002952)
 21:    964.78   0.001054    5.32  0.000341  ( 0.016606 -0.007970  0.001218)
 22:    997.99   0.000045    0.23  0.000014  ( 0.000106 -0.000270 -0.003754)
 23:   1170.27   0.010130   51.19  0.002701  ( 0.032101  0.040790 -0.002636)
 24:   1227.60   0.014819   74.89  0.003767  ( 0.001086  0.061147 -0.005195)
 25:   1253.51   0.000186    0.94  0.000046  (-0.000024  0.000598  0.006773)
 26:   1302.82   0.055511  280.53  0.013297  ( 0.109633 -0.035228  0.006030)
 27:   1355.42   0.002922   14.77  0.000673  ( 0.025907 -0.000966  0.000793)
 28:   1382.82   0.004845   24.49  0.001093  ( 0.028941  0.015987 -0.000555)
 29:   1441.19   0.009578   48.40  0.002074  (-0.029969 -0.034220  0.002159)
 30:   1572.90   0.012267   61.99  0.002434  (-0.002289 -0.049101  0.004193)
 31:   1739.77   0.001786    9.03  0.000320  (-0.016300  0.007314 -0.001096)
 32:   1877.27   0.061051  308.53  0.010149  (-0.023653 -0.097622  0.007694)
 33:   1988.18   0.099166  501.15  0.015565  ( 0.102173  0.071515 -0.003367)
 34:   3215.05   0.003488   17.62  0.000339  (-0.000401  0.018325 -0.001598)
 35:   3230.03   0.006309   31.88  0.000610  ( 0.024304  0.004335  0.000286)
 36:   3347.72   0.029815  150.68  0.002779  (-0.002160  0.052451 -0.004851)
 37:   3382.25   0.027918  141.09  0.002576  ( 0.001384 -0.004629 -0.050523)
 38:   3515.46   0.033044  166.99  0.002933  ( 0.040844 -0.035323  0.004168)

* The epsilon (eps) is given for a Dirac delta lineshape.
** The dipole moment derivative (T) already includes vibrational overlap.

The first frequency considered to be a vibration is 6
The total number of vibrations considered is 33


--------------------------
THERMOCHEMISTRY AT 298.15K
--------------------------

Temperature         ...   298.15 K
Pressure            ...     1.00 atm
Total Mass          ...   113.10 AMU
Quasi RRHO          ...     True
Cut-Off Frequency   ...     1.00 cm^-1

Throughout the following assumptions are being made:
  (1) The electronic state is orbitally nondegenerate
  (2) There are no thermally accessible electronically excited states
  (3) Hindered rotations indicated by low frequency modes are not
      treated as such but are treated as vibrations and this may
      cause some error
  (4) All equations used are the standard statistical mechanics
      equations for an ideal gas
  (5) All vibrations are strictly harmonic

freq.      69.22  E(vib)   ...       0.50 
freq.     132.08  E(vib)   ...       0.42 
freq.     309.99  E(vib)   ...       0.26 
freq.     387.94  E(vib)   ...       0.20 
freq.     451.27  E(vib)   ...       0.16 
freq.     510.59  E(vib)   ...       0.14 
freq.     529.78  E(vib)   ...       0.13 
freq.     557.06  E(vib)   ...       0.12 
freq.     629.83  E(vib)   ...       0.09 
freq.     669.90  E(vib)   ...       0.08 
freq.     745.76  E(vib)   ...       0.06 
freq.     815.79  E(vib)   ...       0.05 
freq.     817.30  E(vib)   ...       0.05 
freq.     931.39  E(vib)   ...       0.03 
freq.     939.02  E(vib)   ...       0.03 
freq.     964.78  E(vib)   ...       0.03 
freq.     997.99  E(vib)   ...       0.02 
freq.    1170.27  E(vib)   ...       0.01 
freq.    1227.60  E(vib)   ...       0.01 
freq.    1253.51  E(vib)   ...       0.01 
freq.    1302.82  E(vib)   ...       0.01 
freq.    1355.42  E(vib)   ...       0.01 
freq.    1382.82  E(vib)   ...       0.01 
freq.    1441.19  E(vib)   ...       0.00 
freq.    1572.90  E(vib)   ...       0.00 
freq.    1739.77  E(vib)   ...       0.00 
freq.    1877.27  E(vib)   ...       0.00 
freq.    1988.18  E(vib)   ...       0.00 
freq.    3215.05  E(vib)   ...       0.00 
freq.    3230.03  E(vib)   ...       0.00 
freq.    3347.72  E(vib)   ...       0.00 
freq.    3382.25  E(vib)   ...       0.00 
freq.    3515.46  E(vib)   ...       0.00 

------------
INNER ENERGY
------------

The inner energy is: U= E(el) + E(ZPE) + E(vib) + E(rot) + E(trans)
    E(el)   - is the total energy from the electronic structure calculation
              = E(kin-el) + E(nuc-el) + E(el-el) + E(nuc-nuc)
    E(ZPE)  - the the zero temperature vibrational energy from the frequency calculation
    E(vib)  - the the finite temperature correction to E(ZPE) due to population
              of excited vibrational states
    E(rot)  - is the rotational thermal energy
    E(trans)- is the translational thermal energy

Summary of contributions to the inner energy U:
Electronic energy                ...   -414.59194906 Eh
Zero point energy                ...      0.09901363 Eh      62.13 kcal/mol
Thermal vibrational correction   ...      0.00384211 Eh       2.41 kcal/mol
Thermal rotational correction    ...      0.00141627 Eh       0.89 kcal/mol
Thermal translational correction ...      0.00141627 Eh       0.89 kcal/mol
-----------------------------------------------------------------------
Total thermal energy                   -414.48626077 Eh


Summary of corrections to the electronic energy:
(perhaps to be used in another calculation)
Total thermal correction                  0.00667465 Eh       4.19 kcal/mol
Non-thermal (ZPE) correction              0.09901363 Eh      62.13 kcal/mol
-----------------------------------------------------------------------
Total correction                          0.10568829 Eh      66.32 kcal/mol


--------
ENTHALPY
--------

The enthalpy is H = U + kB*T
                kB is Boltzmann's constant
Total thermal energy              ...   -414.48626077 Eh 
Thermal Enthalpy correction       ...      0.00094421 Eh       0.59 kcal/mol
-----------------------------------------------------------------------
Total Enthalpy                    ...   -414.48531657 Eh


Note: Only C1 symmetry has been detected, increase convergence thresholds 
      if your molecule has a higher symmetry. Symmetry factor of 1.0 is   
      used for the rotational entropy correction. 
 

Note: Rotational entropy computed according to Herzberg 
Infrared and Raman Spectra, Chapter V,1, Van Nostrand Reinhold, 1945 
Point Group:  C1, Symmetry Number:   1  
Rotational constants in cm-1:     0.118624     0.065543     0.042503 

Vibrational entropy computed according to the QRRHO of S. Grimme
Chem.Eur.J. 2012 18 9955 using a reference frequency of 100.0 cm-1


-------
ENTROPY
-------

The entropy contributions are T*S = T*(S(el)+S(vib)+S(rot)+S(trans))
     S(el)   - electronic entropy
     S(vib)  - vibrational entropy
     S(rot)  - rotational entropy
     S(trans)- translational entropy
The entropies will be listed as multiplied by the temperature to get
units of energy

Electronic entropy                ...      0.00000000 Eh      0.00 kcal/mol
Vibrational entropy               ...      0.00627409 Eh      3.94 kcal/mol
Rotational entropy                ...      0.01329463 Eh      8.34 kcal/mol
Translational entropy             ...      0.01904554 Eh     11.95 kcal/mol
-----------------------------------------------------------------------
Final entropy term                ...      0.03861426 Eh     24.23 kcal/mol

In case the symmetry of your molecule has not been determined correctly
or in case you have a reason to use a different symmetry number we print 
out the resulting rotational entropy values for sn=1,12:

 non-linear molecules -----------------------------------
|  sn= 1 | S(rot)=       0.01329463 Eh      8.34 kcal/mol|
|  sn= 2 | S(rot)=       0.01264018 Eh      7.93 kcal/mol|
|  sn= 3 | S(rot)=       0.01225734 Eh      7.69 kcal/mol|
|  sn= 4 | S(rot)=       0.01198572 Eh      7.52 kcal/mol|
|  sn= 5 | S(rot)=       0.01177503 Eh      7.39 kcal/mol|
|  sn= 6 | S(rot)=       0.01160289 Eh      7.28 kcal/mol|
|  sn= 7 | S(rot)=       0.01145734 Eh      7.19 kcal/mol|
|  sn= 8 | S(rot)=       0.01133126 Eh      7.11 kcal/mol|
|  sn= 9 | S(rot)=       0.01122006 Eh      7.04 kcal/mol|
|  sn=10 | S(rot)=       0.01112058 Eh      6.98 kcal/mol|
|  sn=11 | S(rot)=       0.01103059 Eh      6.92 kcal/mol|
|  sn=12 | S(rot)=       0.01094843 Eh      6.87 kcal/mol|
 linear molecules ---------------------------------------
|  Dinfh | S(rot)=       0.00830770 Eh      5.21 kcal/mol|
|  Cinfv | S(rot)=       0.00896216 Eh      5.62 kcal/mol|
 --------------------------------------------------------


-------------------
GIBBS FREE ENERGY
-------------------

The Gibbs free energy is G = H - T*S

Total enthalpy                    ...   -414.48531657 Eh 
Total entropy correction          ...     -0.03861426 Eh    -24.23 kcal/mol
-----------------------------------------------------------------------
Final Gibbs free energy         ...   -414.52393083 Eh

For completeness - the Gibbs free energy minus the electronic energy
G-E(el)                           ...      0.06801823 Eh     42.68 kcal/mol


Maximum memory used throughout the entire PROP-calculation: 34.7 MB

--------------------------------
SUGGESTED CITATIONS FOR THIS RUN
--------------------------------

Below you find a list of papers that are relevant to this ORCA run
We neither can nor want to force you to cite these papers, but we appreciate if you do
You receive ORCA, which is the product of decades of hard work by many enthusiastic individuals, for free
The only thing we kindly ask in return is that you cite our papers,
We deeply appreciate it, if you show your appreciation for ORCA by not just citing the generic ORCA reference.

Please note that relegating all ORCA citations to the supporting information does *not* help us.
SI sections are not indexed - citations you put there will not count into any citation statistics
But we need these citations in order to attract the funding resources that allow us to do what we are doing

Therefore, if you are a happy ORCA user, please consider citing a few of the papers listed below in the main body of your paper

In addition to the list printed below, the program has created the file Uracil_1.bibtex that contains the list in bibtex format
You can import this file easily into all common literature databanks and citation aid programs


List of essential papers. We consider these as the minimum necessary citations

  1. Neese, F.
     Software update: the ORCA program system, version 6.0
     WIRES Comput. Molec. Sci. 2025 15(1), e70019
     doi.org/10.1002/wcms.7019

List of papers to cite with high priority. The work reported in these papers was absolutely
necessary for this run to complete.
Our perspective: the developers of density functionals and basis sets usually get cited in chemistry papers
Good! But without the algorithms to do something with them, the functionals or basis sets would not do anything.
Hence, in our opinion, the algorithm design and method developments papers are equally worthy of getting cited

  1. Neese, F.
     An improvement of the resolution of the identity approximation for the formation of the Coulomb matrix
     J. Comp. Chem. 2003 24(14), 1740-1747
     doi.org/10.1002/jcc.10318
  2. Neese, F.; Wennmohs, F.; Hansen, A.; Becker, U.
     Efficient, approximate and parallel Hartree-Fock and hybrid DFT calculations. A 'chain-of-spheres' algorithm for the Hartree-Fock exchange
     Chem. Phys. 2009 356(1-3), 98-109
     doi.org/10.1016/j.chemphys.2008.10.036
  3. Bykov, D.; Petrenko, T.; Izsak, R.; Kossmann, S.; Becker, U.; Valeev, E.; Neese, F.
     Efficient implementation of the analytic second derivatives of Hartree-Fock and hybrid DFT energies: a detailed analysis of different approximations
     Molec. Phys. 2015 113 , 1961-1977
     doi.org/10.1080/00268976.2015.1025114
  4. Helmich-Paris, B.; de Souza, B.; Neese, F.; Izsák, R.
     An improved chain of spheres for exchange algorithm
     J. Chem. Phys. 2021 155(10), 104109
     doi.org/10.1063/5.0058766
  5. Neese, F.
     The SHARK Integral Generation and Digestion System
     J. Comp. Chem. 2022 44(3), 381
     doi.org/10.1002/jcc.26942

List of suggested additional citations. These are papers that are important in the 'surrounding' of 
of this run, or papers that preceded the highly important papers. If you like your results we are grateful for a citation.

  1. Izsak, R.; Neese, F.
     An overlap fitted chain of spheres exchange method
     J. Chem. Phys. 2011 135 , 144105
     doi.org/10.1063/1.3646921
  2. Izsak, R.; Hansen, A.; Neese, F.
     The resolution of identity and chain of spheres approximations for the LPNO-CCSD singles Fock term
     Molec. Phys. 2012 110 , 2413-2417
     doi.org/10.1080/00268976.2012.687466
  3. Neese, F.
     The ORCA program system
     WIRES Comput. Molec. Sci. 2012 2(1), 73-78
     doi.org/10.1002/wcms.81
  4. Izsak, R.; Neese, F.; Klopper, W.
     Robust fitting techniques in the chain of spheres approximation to the Fock exchange: The role of the complementary space
     J. Chem. Phys. 2013 139 , 
     doi.org/10.1063/1.4819264
  5. Neese, F.
     Software update: the ORCA program system, version 4.0
     WIRES Comput. Molec. Sci. 2018 8(1), 1-6
     doi.org/10.1002/wcms.1327
  6. Neese, F.; Wennmohs, F.; Becker, U.; Riplinger, C.
     The ORCA quantum chemistry program package
     J. Chem. Phys. 2020 152(22), 224108
     doi.org/10.1063/5.0004608
  7. Neese, F.
     Software update: The ORCA program system—Version 5.0
     WIRES Comput. Molec. Sci. 2022 12(1), e1606
     doi.org/10.1002/wcms.1606

List of optional additional citations

  1. Neese, F.
     Approximate second-order SCF convergence for spin unrestricted wavefunctions
     Chem. Phys. Lett. 2000 325(1-3), 93-98
     doi.org/10.1016/s0009-2614(00)00662-x

Timings for individual modules:

Sum of individual times          ...       55.669 sec (=   0.928 min)
Startup calculation              ...        7.262 sec (=   0.121 min)  13.0 %
SCF iterations                   ...       19.869 sec (=   0.331 min)  35.7 %
Property integrals               ...        7.170 sec (=   0.119 min)  12.9 %
SCF Response                     ...        3.872 sec (=   0.065 min)   7.0 %
Property calculations            ...        7.623 sec (=   0.127 min)  13.7 %
SCF Gradient evaluation          ...        9.862 sec (=   0.164 min)  17.7 %
Geometry relaxation              ...        0.011 sec (=   0.000 min)   0.0 %
                             ****ORCA TERMINATED NORMALLY****
TOTAL RUN TIME: 0 days 0 hours 0 minutes 59 seconds 842 msec
