11
* (null), Energy   -1000.0000000
C     1.589770    0.404289    0.010476    0.252291   -0.146364    0.019119
C     1.411370   -0.965186    0.118323    0.030715    0.171480   -0.012755
N     0.241399   -1.624530    0.140582   -0.284562    0.184585   -0.023488
C    -0.900298   -0.884733    0.048827    0.286224   -0.728123    0.069357
N    -0.762264    0.508959   -0.063346    0.236696    0.412697   -0.027872
C     0.427306    1.242907   -0.091179   -0.617684   -0.067273   -0.012163
O    -2.041444   -1.368814    0.058335    0.048930    0.047915   -0.003047
O     0.393949    2.478247   -0.194845    0.015058    0.011296   -0.000434
H     2.308617   -1.598423    0.195226   -0.678376   -0.775126    0.044208
H    -1.625843    1.043584   -0.132009    0.585590    0.975583   -0.063033
H     2.579572    0.863274    0.000136    0.319671   -0.261609    0.030428
11
* Frequency(22) 1172.4906
C     1.618442    0.387655    0.012649    0.252291   -0.146364    0.019119
C     1.414861   -0.945699    0.116873    0.030715    0.171480   -0.012755
N     0.209060   -1.603552    0.137913   -0.284562    0.184585   -0.023488
C    -0.867770   -0.967481    0.056709    0.286224   -0.728123    0.069357
N    -0.735365    0.555860   -0.066514    0.236696    0.412697   -0.027872
C     0.357109    1.235262   -0.092561   -0.617684   -0.067273   -0.012163
O    -2.035883   -1.363368    0.057989    0.048930    0.047915   -0.003047
O     0.395660    2.479531   -0.194894    0.015058    0.011296   -0.000434
H     2.231523   -1.686512    0.200250   -0.678376   -0.775126    0.044208
H    -1.559294    1.154454   -0.139173    0.585590    0.975583   -0.063033
H     2.615901    0.833544    0.003594    0.319671   -0.261609    0.030428
11
* Frequency(22) 1172.4906
C     1.644006    0.372824    0.014586    0.252291   -0.146364    0.019119
C     1.417973   -0.928323    0.115581    0.030715    0.171480   -0.012755
N     0.180225   -1.584849    0.135533   -0.284562    0.184585   -0.023488
C    -0.838767   -1.041261    0.063737    0.286224   -0.728123    0.069357
N    -0.711381    0.597678   -0.069338    0.236696    0.412697   -0.027872
C     0.294519    1.228445   -0.093793   -0.617684   -0.067273   -0.012163
O    -2.030925   -1.358513    0.057680    0.048930    0.047915   -0.003047
O     0.397186    2.480675   -0.194938    0.015058    0.011296   -0.000434
H     2.162784   -1.765055    0.204729   -0.678376   -0.775126    0.044208
H    -1.499956    1.253310   -0.145560    0.585590    0.975583   -0.063033
H     2.648294    0.807035    0.006678    0.319671   -0.261609    0.030428
11
* Frequency(22) 1172.4906
C     1.663693    0.361403    0.016078    0.252291   -0.146364    0.019119
C     1.420370   -0.914941    0.114586    0.030715    0.171480   -0.012755
N     0.158020   -1.570445    0.133700   -0.284562    0.184585   -0.023488
C    -0.816432   -1.098079    0.069149    0.286224   -0.728123    0.069357
N    -0.692911    0.629882   -0.071513    0.236696    0.412697   -0.027872
C     0.246319    1.223196   -0.094742   -0.617684   -0.067273   -0.012163
O    -2.027107   -1.354774    0.057442    0.048930    0.047915   -0.003047
O     0.398361    2.481557   -0.194972    0.015058    0.011296   -0.000434
H     2.109848   -1.825541    0.208179   -0.678376   -0.775126    0.044208
H    -1.454260    1.329438   -0.150479    0.585590    0.975583   -0.063033
H     2.673239    0.786621    0.009052    0.319671   -0.261609    0.030428
11
* Frequency(22) 1172.4906
C     1.675370    0.354629    0.016963    0.252291   -0.146364    0.019119
C     1.421792   -0.907005    0.113995    0.030715    0.171480   -0.012755
N     0.144850   -1.561902    0.132613   -0.284562    0.184585   -0.023488
C    -0.803185   -1.131778    0.072359    0.286224   -0.728123    0.069357
N    -0.681956    0.648983   -0.072803    0.236696    0.412697   -0.027872
C     0.217732    1.220082   -0.095305   -0.617684   -0.067273   -0.012163
O    -2.024842   -1.352557    0.057301    0.048930    0.047915   -0.003047
O     0.399058    2.482080   -0.194992    0.015058    0.011296   -0.000434
H     2.078451   -1.861415    0.210225   -0.678376   -0.775126    0.044208
H    -1.427158    1.374590   -0.153396    0.585590    0.975583   -0.063033
H     2.688034    0.774513    0.010460    0.319671   -0.261609    0.030428
11
* Frequency(22) 1172.4906
C     1.677770    0.353236    0.017145    0.252291   -0.146364    0.019119
C     1.422084   -0.905373    0.113874    0.030715    0.171480   -0.012755
N     0.142142   -1.560145    0.132390   -0.284562    0.184585   -0.023488
C    -0.800462   -1.138706    0.073019    0.286224   -0.728123    0.069357
N    -0.679704    0.652909   -0.073068    0.236696    0.412697   -0.027872
C     0.211855    1.219442   -0.095421   -0.617684   -0.067273   -0.012163
O    -2.024377   -1.352101    0.057272    0.048930    0.047915   -0.003047
O     0.399201    2.482187   -0.194996    0.015058    0.011296   -0.000434
H     2.071997   -1.868790    0.210646   -0.678376   -0.775126    0.044208
H    -1.421587    1.383872   -0.153996    0.585590    0.975583   -0.063033
H     2.691075    0.772024    0.010750    0.319671   -0.261609    0.030428
11
* Frequency(22) 1172.4906
C     1.670634    0.357376    0.016604    0.252291   -0.146364    0.019119
C     1.421215   -0.910223    0.114235    0.030715    0.171480   -0.012755
N     0.150191   -1.565366    0.133054   -0.284562    0.184585   -0.023488
C    -0.808557   -1.118112    0.071057    0.286224   -0.728123    0.069357
N    -0.686398    0.641237   -0.072280    0.236696    0.412697   -0.027872
C     0.229325    1.221345   -0.095077   -0.617684   -0.067273   -0.012163
O    -2.025761   -1.353456    0.057358    0.048930    0.047915   -0.003047
O     0.398775    2.481867   -0.194984    0.015058    0.011296   -0.000434
H     2.091184   -1.846866    0.209395   -0.678376   -0.775126    0.044208
H    -1.438149    1.356279   -0.152213    0.585590    0.975583   -0.063033
H     2.682034    0.779423    0.009889    0.319671   -0.261609    0.030428
11
* Frequency(22) 1172.4906
C     1.654736    0.366600    0.015399    0.252291   -0.146364    0.019119
C     1.419280   -0.921030    0.115039    0.030715    0.171480   -0.012755
N     0.168123   -1.576998    0.134534   -0.284562    0.184585   -0.023488
C    -0.826594   -1.072227    0.066686    0.286224   -0.728123    0.069357
N    -0.701314    0.615230   -0.070523    0.236696    0.412697   -0.027872
C     0.268250    1.225584   -0.094311   -0.617684   -0.067273   -0.012163
O    -2.028844   -1.356475    0.057550    0.048930    0.047915   -0.003047
O     0.397826    2.481156   -0.194956    0.015058    0.011296   -0.000434
H     2.133933   -1.798020    0.206610   -0.678376   -0.775126    0.044208
H    -1.475052    1.294800   -0.148241    0.585590    0.975583   -0.063033
H     2.661889    0.795909    0.007972    0.319671   -0.261609    0.030428
11
* Frequency(22) 1172.4906
C     1.631797    0.379907    0.013661    0.252291   -0.146364    0.019119
C     1.416487   -0.936621    0.116198    0.030715    0.171480   -0.012755
N     0.193996   -1.593781    0.136670   -0.284562    0.184585   -0.023488
C    -0.852618   -1.006025    0.060380    0.286224   -0.728123    0.069357
N    -0.722835    0.577706   -0.067989    0.236696    0.412697   -0.027872
C     0.324411    1.231701   -0.093205   -0.617684   -0.067273   -0.012163
O    -2.033293   -1.360832    0.057827    0.048930    0.047915   -0.003047
O     0.396457    2.480129   -0.194917    0.015058    0.011296   -0.000434
H     2.195612   -1.727544    0.202590   -0.678376   -0.775126    0.044208
H    -1.528295    1.206099   -0.142510    0.585590    0.975583   -0.063033
H     2.632824    0.819695    0.005205    0.319671   -0.261609    0.030428
11
* Frequency(22) 1172.4906
C     1.604304    0.395857    0.011577    0.252291   -0.146364    0.019119
C     1.413140   -0.955308    0.117588    0.030715    0.171480   -0.012755
N     0.225006   -1.613896    0.139229   -0.284562    0.184585   -0.023488
C    -0.883809   -0.926679    0.052822    0.286224   -0.728123    0.069357
N    -0.748629    0.532733   -0.064952    0.236696    0.412697   -0.027872
C     0.391722    1.239032   -0.091879   -0.617684   -0.067273   -0.012163
O    -2.038625   -1.366054    0.058159    0.048930    0.047915   -0.003047
O     0.394816    2.478898   -0.194870    0.015058    0.011296   -0.000434
H     2.269537   -1.643076    0.197773   -0.678376   -0.775126    0.044208
H    -1.592108    1.099786   -0.135641    0.585590    0.975583   -0.063033
H     2.597988    0.848203    0.001889    0.319671   -0.261609    0.030428
11
* Frequency(22) 1172.4906
C     1.575236    0.412720    0.009374    0.252291   -0.146364    0.019119
C     1.409601   -0.975065    0.119058    0.030715    0.171480   -0.012755
N     0.257792   -1.635163    0.141935   -0.284562    0.184585   -0.023488
C    -0.916787   -0.842788    0.044831    0.286224   -0.728123    0.069357
N    -0.775900    0.485184   -0.061740    0.236696    0.412697   -0.027872
C     0.462889    1.246782   -0.090478   -0.617684   -0.067273   -0.012163
O    -2.044262   -1.371574    0.058511    0.048930    0.047915   -0.003047
O     0.393081    2.477596   -0.194820    0.015058    0.011296   -0.000434
H     2.347697   -1.553769    0.192679   -0.678376   -0.775126    0.044208
H    -1.659578    0.987383   -0.128378    0.585590    0.975583   -0.063033
H     2.561157    0.878345   -0.001617    0.319671   -0.261609    0.030428
11
* Frequency(22) 1172.4906
C     1.547743    0.428670    0.007291    0.252291   -0.146364    0.019119
C     1.406254   -0.993752    0.120448    0.030715    0.171480   -0.012755
N     0.288802   -1.655278    0.144495   -0.284562    0.184585   -0.023488
C    -0.947978   -0.763442    0.037273    0.286224   -0.728123    0.069357
N    -0.801693    0.440211   -0.058703    0.236696    0.412697   -0.027872
C     0.530201    1.254113   -0.089153   -0.617684   -0.067273   -0.012163
O    -2.049594   -1.376796    0.058843    0.048930    0.047915   -0.003047
O     0.391440    2.476365   -0.194772    0.015058    0.011296   -0.000434
H     2.421622   -1.469301    0.187862   -0.678376   -0.775126    0.044208
H    -1.723392    0.881070   -0.121509    0.585590    0.975583   -0.063033
H     2.526321    0.906853   -0.004932    0.319671   -0.261609    0.030428
11
* Frequency(22) 1172.4906
C     1.524804    0.441978    0.005553    0.252291   -0.146364    0.019119
C     1.403461   -1.009343    0.121607    0.030715    0.171480   -0.012755
N     0.314675   -1.672061    0.146631   -0.284562    0.184585   -0.023488
C    -0.974002   -0.697239    0.030967    0.286224   -0.728123    0.069357
N    -0.823214    0.402688   -0.056169    0.236696    0.412697   -0.027872
C     0.586362    1.260230   -0.088047   -0.617684   -0.067273   -0.012163
O    -2.054043   -1.381152    0.059120    0.048930    0.047915   -0.003047
O     0.390071    2.475338   -0.194733    0.015058    0.011296   -0.000434
H     2.483301   -1.398825    0.183842   -0.678376   -0.775126    0.044208
H    -1.776634    0.792369   -0.115778    0.585590    0.975583   -0.063033
H     2.497256    0.930639   -0.007699    0.319671   -0.261609    0.030428
11
* Frequency(22) 1172.4906
C     1.508906    0.451201    0.004348    0.252291   -0.146364    0.019119
C     1.401526   -1.020149    0.122411    0.030715    0.171480   -0.012755
N     0.332607   -1.683693    0.148111   -0.284562    0.184585   -0.023488
C    -0.992039   -0.651355    0.026597    0.286224   -0.728123    0.069357
N    -0.838130    0.376681   -0.054413    0.236696    0.412697   -0.027872
C     0.625286    1.264469   -0.087280   -0.617684   -0.067273   -0.012163
O    -2.057127   -1.384172    0.059312    0.048930    0.047915   -0.003047
O     0.389122    2.474626   -0.194706    0.015058    0.011296   -0.000434
H     2.526051   -1.349979    0.181056   -0.678376   -0.775126    0.044208
H    -1.813537    0.730890   -0.111806    0.585590    0.975583   -0.063033
H     2.477111    0.947125   -0.009616    0.319671   -0.261609    0.030428
11
* Frequency(22) 1172.4906
C     1.501770    0.455341    0.003807    0.252291   -0.146364    0.019119
C     1.400657   -1.024999    0.122772    0.030715    0.171480   -0.012755
N     0.340655   -1.688914    0.148775   -0.284562    0.184585   -0.023488
C    -1.000134   -0.630761    0.024635    0.286224   -0.728123    0.069357
N    -0.844825    0.365008   -0.053624    0.236696    0.412697   -0.027872
C     0.642757    1.266372   -0.086936   -0.617684   -0.067273   -0.012163
O    -2.058511   -1.385527    0.059398    0.048930    0.047915   -0.003047
O     0.388696    2.474306   -0.194693    0.015058    0.011296   -0.000434
H     2.545238   -1.328055    0.179806   -0.678376   -0.775126    0.044208
H    -1.830100    0.703297   -0.110023    0.585590    0.975583   -0.063033
H     2.468070    0.954525   -0.010477    0.319671   -0.261609    0.030428
11
* Frequency(22) 1172.4906
C     1.504170    0.453948    0.003989    0.252291   -0.146364    0.019119
C     1.400949   -1.023368    0.122650    0.030715    0.171480   -0.012755
N     0.337948   -1.687158    0.148552   -0.284562    0.184585   -0.023488
C    -0.997411   -0.637689    0.025295    0.286224   -0.728123    0.069357
N    -0.842573    0.368935   -0.053889    0.236696    0.412697   -0.027872
C     0.636880    1.265732   -0.087052   -0.617684   -0.067273   -0.012163
O    -2.058045   -1.385071    0.059369    0.048930    0.047915   -0.003047
O     0.388839    2.474414   -0.194698    0.015058    0.011296   -0.000434
H     2.538783   -1.335430    0.180226   -0.678376   -0.775126    0.044208
H    -1.824528    0.712579   -0.110623    0.585590    0.975583   -0.063033
H     2.471111    0.952036   -0.010188    0.319671   -0.261609    0.030428
11
* Frequency(22) 1172.4906
C     1.515847    0.447174    0.004874    0.252291   -0.146364    0.019119
C     1.402371   -1.015431    0.122060    0.030715    0.171480   -0.012755
N     0.324778   -1.678615    0.147464   -0.284562    0.184585   -0.023488
C    -0.984164   -0.671388    0.028505    0.286224   -0.728123    0.069357
N    -0.831618    0.388035   -0.055179    0.236696    0.412697   -0.027872
C     0.608292    1.262618   -0.087615   -0.617684   -0.067273   -0.012163
O    -2.055780   -1.382853    0.059228    0.048930    0.047915   -0.003047
O     0.389536    2.474937   -0.194718    0.015058    0.011296   -0.000434
H     2.507387   -1.371304    0.182272   -0.678376   -0.775126    0.044208
H    -1.797426    0.757731   -0.113540    0.585590    0.975583   -0.063033
H     2.485906    0.939928   -0.008779    0.319671   -0.261609    0.030428
11
* Frequency(22) 1172.4906
C     1.535534    0.435753    0.006366    0.252291   -0.146364    0.019119
C     1.404767   -1.002050    0.121065    0.030715    0.171480   -0.012755
N     0.302572   -1.664211    0.145632   -0.284562    0.184585   -0.023488
C    -0.961829   -0.728206    0.033917    0.286224   -0.728123    0.069357
N    -0.813148    0.420239   -0.057354    0.236696    0.412697   -0.027872
C     0.560092    1.257369   -0.088564   -0.617684   -0.067273   -0.012163
O    -2.051962   -1.379114    0.058990    0.048930    0.047915   -0.003047
O     0.390711    2.475818   -0.194752    0.015058    0.011296   -0.000434
H     2.454451   -1.431790    0.185722   -0.678376   -0.775126    0.044208
H    -1.751730    0.833859   -0.118459    0.585590    0.975583   -0.063033
H     2.510851    0.919513   -0.006405    0.319671   -0.261609    0.030428
11
* Frequency(22) 1172.4906
C     1.561099    0.420922    0.008303    0.252291   -0.146364    0.019119
C     1.407880   -0.984674    0.119772    0.030715    0.171480   -0.012755
N     0.273738   -1.645507    0.143252   -0.284562    0.184585   -0.023488
C    -0.932826   -0.801986    0.040945    0.286224   -0.728123    0.069357
N    -0.789164    0.462058   -0.060179    0.236696    0.412697   -0.027872
C     0.497502    1.250552   -0.089796   -0.617684   -0.067273   -0.012163
O    -2.047004   -1.374259    0.058681    0.048930    0.047915   -0.003047
O     0.392237    2.476963   -0.194795    0.015058    0.011296   -0.000434
H     2.385711   -1.510334    0.190202   -0.678376   -0.775126    0.044208
H    -1.692392    0.932715   -0.124846    0.585590    0.975583   -0.063033
H     2.543243    0.893005   -0.003322    0.319671   -0.261609    0.030428
11
* Frequency(22) 1172.4906
C     1.589770    0.404289    0.010476    0.252291   -0.146364    0.019119
C     1.411370   -0.965186    0.118323    0.030715    0.171480   -0.012755
N     0.241399   -1.624530    0.140582   -0.284562    0.184585   -0.023488
C    -0.900298   -0.884733    0.048827    0.286224   -0.728123    0.069357
N    -0.762264    0.508959   -0.063346    0.236696    0.412697   -0.027872
C     0.427306    1.242907   -0.091179   -0.617684   -0.067273   -0.012163
O    -2.041444   -1.368814    0.058335    0.048930    0.047915   -0.003047
O     0.393949    2.478247   -0.194845    0.015058    0.011296   -0.000434
H     2.308617   -1.598423    0.195226   -0.678376   -0.775126    0.044208
H    -1.625843    1.043584   -0.132009    0.585590    0.975583   -0.063033
H     2.579572    0.863274    0.000136    0.319671   -0.261609    0.030428
