11
* (null), Energy   -1000.0000000
C     1.356566    0.572472   -0.019574    0.320153   -0.093613    0.016106
C     1.179217   -0.796685    0.088575    0.124377   -0.180371    0.018873
N     0.008210   -1.454494    0.110838    0.103607   -0.302854    0.027739
C    -1.131376   -0.714764    0.018532    0.246215    0.007250    0.006270
N    -0.995238    0.677642   -0.092617    0.576604   -0.296623    0.039200
C     0.194158    1.409660   -0.120689    0.185496   -0.120782    0.015173
O    -2.273001   -1.200862    0.028059   -0.182898    1.019338   -0.089413
O     0.161758    2.645985   -0.224814   -1.143523   -0.153616   -0.018135
H     2.075560   -1.430341    0.165515    0.121735   -0.181941    0.020383
H    -1.858608    1.212888   -0.161920    0.601998   -0.276505    0.044226
H     2.345944    1.032379   -0.030255    0.436152   -0.334545    0.039921
11
* Frequency(8)  393.7610
C     1.392950    0.561833   -0.017743    0.320153   -0.093613    0.016106
C     1.193352   -0.817183    0.090720    0.124377   -0.180371    0.018873
N     0.019984   -1.488912    0.113990    0.103607   -0.302854    0.027739
C    -1.103395   -0.713940    0.019244    0.246215    0.007250    0.006270
N    -0.929710    0.643933   -0.088162    0.576604   -0.296623    0.039200
C     0.215238    1.395933   -0.118965    0.185496   -0.120782    0.015173
O    -2.293786   -1.085020    0.017897   -0.182898    1.019338   -0.089413
O     0.031803    2.628528   -0.226875   -1.143523   -0.153616   -0.018135
H     2.089394   -1.451017    0.167831    0.121735   -0.181941    0.020383
H    -1.790194    1.181464   -0.156894    0.601998   -0.276505    0.044226
H     2.395511    0.994360   -0.025718    0.436152   -0.334545    0.039921
11
* Frequency(8)  393.7610
C     1.425391    0.552347   -0.016111    0.320153   -0.093613    0.016106
C     1.205955   -0.835460    0.092632    0.124377   -0.180371    0.018873
N     0.030483   -1.519600    0.116801    0.103607   -0.302854    0.027739
C    -1.078446   -0.713206    0.019880    0.246215    0.007250    0.006270
N    -0.871283    0.613876   -0.084190    0.576604   -0.296623    0.039200
C     0.234034    1.383694   -0.117427    0.185496   -0.120782    0.015173
O    -2.312320   -0.981731    0.008837   -0.182898    1.019338   -0.089413
O    -0.084070    2.612962   -0.228713   -1.143523   -0.153616   -0.018135
H     2.101729   -1.469453    0.169896    0.121735   -0.181941    0.020383
H    -1.729194    1.153446   -0.152413    0.601998   -0.276505    0.044226
H     2.439706    0.960461   -0.021673    0.436152   -0.334545    0.039921
11
* Frequency(8)  393.7610
C     1.450374    0.545042   -0.014855    0.320153   -0.093613    0.016106
C     1.215660   -0.849535    0.094105    0.124377   -0.180371    0.018873
N     0.038568   -1.543233    0.118966    0.103607   -0.302854    0.027739
C    -1.059233   -0.712640    0.020369    0.246215    0.007250    0.006270
N    -0.826289    0.590729   -0.081131    0.576604   -0.296623    0.039200
C     0.248509    1.374269   -0.116243    0.185496   -0.120782    0.015173
O    -2.326592   -0.902188    0.001860   -0.182898    1.019338   -0.089413
O    -0.173303    2.600975   -0.230128   -1.143523   -0.153616   -0.018135
H     2.111229   -1.483651    0.171487    0.121735   -0.181941    0.020383
H    -1.682218    1.131870   -0.148962    0.601998   -0.276505    0.044226
H     2.473741    0.934355   -0.018557    0.436152   -0.334545    0.039921
11
* Frequency(8)  393.7610
C     1.465191    0.540710   -0.014109    0.320153   -0.093613    0.016106
C     1.221417   -0.857883    0.094979    0.124377   -0.180371    0.018873
N     0.043363   -1.557250    0.120250    0.103607   -0.302854    0.027739
C    -1.047837   -0.712304    0.020659    0.246215    0.007250    0.006270
N    -0.799602    0.577001   -0.079317    0.576604   -0.296623    0.039200
C     0.257094    1.368679   -0.115541    0.185496   -0.120782    0.015173
O    -2.335057   -0.855011   -0.002278   -0.182898    1.019338   -0.089413
O    -0.226228    2.593865   -0.230967   -1.143523   -0.153616   -0.018135
H     2.116863   -1.492071    0.172430    0.121735   -0.181941    0.020383
H    -1.654356    1.119072   -0.146915    0.601998   -0.276505    0.044226
H     2.493927    0.918871   -0.016710    0.436152   -0.334545    0.039921
11
* Frequency(8)  393.7610
C     1.468237    0.539819   -0.013956    0.320153   -0.093613    0.016106
C     1.222600   -0.859599    0.095158    0.124377   -0.180371    0.018873
N     0.044349   -1.560131    0.120514    0.103607   -0.302854    0.027739
C    -1.045495   -0.712235    0.020719    0.246215    0.007250    0.006270
N    -0.794116    0.574179   -0.078944    0.576604   -0.296623    0.039200
C     0.258859    1.367530   -0.115396    0.185496   -0.120782    0.015173
O    -2.336797   -0.845313   -0.003129   -0.182898    1.019338   -0.089413
O    -0.237108    2.592403   -0.231140   -1.143523   -0.153616   -0.018135
H     2.118021   -1.493802    0.172624    0.121735   -0.181941    0.020383
H    -1.648628    1.116442   -0.146494    0.601998   -0.276505    0.044226
H     2.498076    0.915688   -0.016330    0.436152   -0.334545    0.039921
11
* Frequency(8)  393.7610
C     1.459182    0.542467   -0.014411    0.320153   -0.093613    0.016106
C     1.219082   -0.854497    0.094624    0.124377   -0.180371    0.018873
N     0.041418   -1.551565    0.119729    0.103607   -0.302854    0.027739
C    -1.052459   -0.712440    0.020541    0.246215    0.007250    0.006270
N    -0.810425    0.582569   -0.080053    0.576604   -0.296623    0.039200
C     0.253613    1.370946   -0.115826    0.185496   -0.120782    0.015173
O    -2.331624   -0.874144   -0.000600   -0.182898    1.019338   -0.089413
O    -0.204764    2.596748   -0.230627   -1.143523   -0.153616   -0.018135
H     2.114578   -1.488656    0.172048    0.121735   -0.181941    0.020383
H    -1.665655    1.124262   -0.147745    0.601998   -0.276505    0.044226
H     2.485740    0.925151   -0.017459    0.436152   -0.334545    0.039921
11
* Frequency(8)  393.7610
C     1.439007    0.548366   -0.015426    0.320153   -0.093613    0.016106
C     1.211244   -0.843131    0.093435    0.124377   -0.180371    0.018873
N     0.034889   -1.532480    0.117981    0.103607   -0.302854    0.027739
C    -1.067974   -0.712897    0.020146    0.246215    0.007250    0.006270
N    -0.846761    0.601261   -0.082523    0.576604   -0.296623    0.039200
C     0.241923    1.378558   -0.116782    0.185496   -0.120782    0.015173
O    -2.320098   -0.938380    0.005035   -0.182898    1.019338   -0.089413
O    -0.132703    2.606429   -0.229484   -1.143523   -0.153616   -0.018135
H     2.106907   -1.477191    0.170763    0.121735   -0.181941    0.020383
H    -1.703592    1.141687   -0.150532    0.601998   -0.276505    0.044226
H     2.458255    0.946233   -0.019975    0.436152   -0.334545    0.039921
11
* Frequency(8)  393.7610
C     1.409898    0.556877   -0.016891    0.320153   -0.093613    0.016106
C     1.199936   -0.826731    0.091719    0.124377   -0.180371    0.018873
N     0.025469   -1.504944    0.115459    0.103607   -0.302854    0.027739
C    -1.090361   -0.713557    0.019576    0.246215    0.007250    0.006270
N    -0.899187    0.628231   -0.086087    0.576604   -0.296623    0.039200
C     0.225058    1.389539   -0.118161    0.185496   -0.120782    0.015173
O    -2.303469   -1.031060    0.013164   -0.182898    1.019338   -0.089413
O    -0.028732    2.620396   -0.227835   -1.143523   -0.153616   -0.018135
H     2.095838   -1.460649    0.168910    0.121735   -0.181941    0.020383
H    -1.758326    1.166827   -0.154553    0.601998   -0.276505    0.044226
H     2.418599    0.976650   -0.023604    0.436152   -0.334545    0.039921
11
* Frequency(8)  393.7610
C     1.375010    0.567079   -0.018646    0.320153   -0.093613    0.016106
C     1.186382   -0.807075    0.089662    0.124377   -0.180371    0.018873
N     0.014179   -1.471941    0.112436    0.103607   -0.302854    0.027739
C    -1.117192   -0.714347    0.018893    0.246215    0.007250    0.006270
N    -0.962021    0.660555   -0.090359    0.576604   -0.296623    0.039200
C     0.204844    1.402702   -0.119815    0.185496   -0.120782    0.015173
O    -2.283537   -1.142140    0.022908   -0.182898    1.019338   -0.089413
O     0.095882    2.637136   -0.225859   -1.143523   -0.153616   -0.018135
H     2.082572   -1.440822    0.166689    0.121735   -0.181941    0.020383
H    -1.823928    1.196959   -0.159372    0.601998   -0.276505    0.044226
H     2.371070    1.013107   -0.027955    0.436152   -0.334545    0.039921
11
* Frequency(8)  393.7610
C     1.338123    0.577865   -0.020501    0.320153   -0.093613    0.016106
C     1.172052   -0.786294    0.087488    0.124377   -0.180371    0.018873
N     0.002241   -1.437047    0.109240    0.103607   -0.302854    0.027739
C    -1.145560   -0.715182    0.018170    0.246215    0.007250    0.006270
N    -1.028455    0.694730   -0.094875    0.576604   -0.296623    0.039200
C     0.183472    1.416618   -0.121563    0.185496   -0.120782    0.015173
O    -2.262465   -1.259585    0.033210   -0.182898    1.019338   -0.089413
O     0.227634    2.654835   -0.223769   -1.143523   -0.153616   -0.018135
H     2.068547   -1.419859    0.164340    0.121735   -0.181941    0.020383
H    -1.893288    1.228817   -0.164468    0.601998   -0.276505    0.044226
H     2.320818    1.051652   -0.032554    0.436152   -0.334545    0.039921
11
* Frequency(8)  393.7610
C     1.303235    0.588066   -0.022257    0.320153   -0.093613    0.016106
C     1.158498   -0.766638    0.085431    0.124377   -0.180371    0.018873
N    -0.009049   -1.404044    0.106217    0.103607   -0.302854    0.027739
C    -1.172391   -0.715972    0.017487    0.246215    0.007250    0.006270
N    -1.091290    0.727054   -0.099147    0.576604   -0.296623    0.039200
C     0.163257    1.429780   -0.123216    0.185496   -0.120782    0.015173
O    -2.242534   -1.370665    0.042953   -0.182898    1.019338   -0.089413
O     0.352248    2.671575   -0.221793   -1.143523   -0.153616   -0.018135
H     2.055281   -1.400033    0.162119    0.121735   -0.181941    0.020383
H    -1.958890    1.258948   -0.169287    0.601998   -0.276505    0.044226
H     2.273289    1.088108   -0.036905    0.436152   -0.334545    0.039921
11
* Frequency(8)  393.7610
C     1.274126    0.596578   -0.023721    0.320153   -0.093613    0.016106
C     1.147190   -0.750239    0.083715    0.124377   -0.180371    0.018873
N    -0.018469   -1.376508    0.103695    0.103607   -0.302854    0.027739
C    -1.194777   -0.716631    0.016917    0.246215    0.007250    0.006270
N    -1.143716    0.754024   -0.102711    0.576604   -0.296623    0.039200
C     0.146392    1.440761   -0.124596    0.185496   -0.120782    0.015173
O    -2.225904   -1.463345    0.051083   -0.182898    1.019338   -0.089413
O     0.456219    2.685542   -0.220144   -1.143523   -0.153616   -0.018135
H     2.044212   -1.383490    0.160266    0.121735   -0.181941    0.020383
H    -2.013625    1.284089   -0.173309    0.601998   -0.276505    0.044226
H     2.233634    1.118526   -0.040535    0.436152   -0.334545    0.039921
11
* Frequency(8)  393.7610
C     1.253951    0.602477   -0.024736    0.320153   -0.093613    0.016106
C     1.139352   -0.738872    0.082526    0.124377   -0.180371    0.018873
N    -0.024998   -1.357423    0.101947    0.103607   -0.302854    0.027739
C    -1.210293   -0.717088    0.016522    0.246215    0.007250    0.006270
N    -1.180052    0.772716   -0.105181    0.576604   -0.296623    0.039200
C     0.134702    1.448373   -0.125552    0.185496   -0.120782    0.015173
O    -2.214378   -1.527581    0.056717   -0.182898    1.019338   -0.089413
O     0.528281    2.695223   -0.219001   -1.143523   -0.153616   -0.018135
H     2.036541   -1.372025    0.158981    0.121735   -0.181941    0.020383
H    -2.051561    1.301513   -0.176096    0.601998   -0.276505    0.044226
H     2.206148    1.139608   -0.043050    0.436152   -0.334545    0.039921
11
* Frequency(8)  393.7610
C     1.244896    0.605125   -0.025191    0.320153   -0.093613    0.016106
C     1.135834   -0.733770    0.081992    0.124377   -0.180371    0.018873
N    -0.027929   -1.348857    0.101162    0.103607   -0.302854    0.027739
C    -1.217257   -0.717293    0.016345    0.246215    0.007250    0.006270
N    -1.196360    0.781106   -0.106290    0.576604   -0.296623    0.039200
C     0.129456    1.451789   -0.125981    0.185496   -0.120782    0.015173
O    -2.209205   -1.556412    0.059246   -0.182898    1.019338   -0.089413
O     0.560624    2.699567   -0.218488   -1.143523   -0.153616   -0.018135
H     2.033098   -1.366879    0.158405    0.121735   -0.181941    0.020383
H    -2.068588    1.309334   -0.177347    0.601998   -0.276505    0.044226
H     2.193812    1.149070   -0.044179    0.436152   -0.334545    0.039921
11
* Frequency(8)  393.7610
C     1.247942    0.604234   -0.025038    0.320153   -0.093613    0.016106
C     1.137017   -0.735487    0.082172    0.124377   -0.180371    0.018873
N    -0.026943   -1.351739    0.101426    0.103607   -0.302854    0.027739
C    -1.214914   -0.717224    0.016404    0.246215    0.007250    0.006270
N    -1.190874    0.778284   -0.105917    0.576604   -0.296623    0.039200
C     0.131221    1.450640   -0.125837    0.185496   -0.120782    0.015173
O    -2.210945   -1.546714    0.058396   -0.182898    1.019338   -0.089413
O     0.549744    2.698106   -0.218661   -1.143523   -0.153616   -0.018135
H     2.034256   -1.368610    0.158599    0.121735   -0.181941    0.020383
H    -2.062860    1.306703   -0.176926    0.601998   -0.276505    0.044226
H     2.197962    1.145887   -0.043800    0.436152   -0.334545    0.039921
11
* Frequency(8)  393.7610
C     1.262759    0.599901   -0.024293    0.320153   -0.093613    0.016106
C     1.142774   -0.743835    0.083045    0.124377   -0.180371    0.018873
N    -0.022148   -1.365755    0.102710    0.103607   -0.302854    0.027739
C    -1.203519   -0.716888    0.016694    0.246215    0.007250    0.006270
N    -1.164188    0.764556   -0.104103    0.576604   -0.296623    0.039200
C     0.139806    1.445050   -0.125135    0.185496   -0.120782    0.015173
O    -2.219410   -1.499537    0.054258   -0.182898    1.019338   -0.089413
O     0.496820    2.690996   -0.219500   -1.143523   -0.153616   -0.018135
H     2.039890   -1.377031    0.159542    0.121735   -0.181941    0.020383
H    -2.034998    1.293906   -0.174879    0.601998   -0.276505    0.044226
H     2.218148    1.130404   -0.041952    0.436152   -0.334545    0.039921
11
* Frequency(8)  393.7610
C     1.287742    0.592596   -0.023036    0.320153   -0.093613    0.016106
C     1.152479   -0.757910    0.084518    0.124377   -0.180371    0.018873
N    -0.014063   -1.389388    0.104875    0.103607   -0.302854    0.027739
C    -1.184306   -0.716323    0.017184    0.246215    0.007250    0.006270
N    -1.119193    0.741409   -0.101044    0.576604   -0.296623    0.039200
C     0.154281    1.435625   -0.123951    0.185496   -0.120782    0.015173
O    -2.233683   -1.419994    0.047280   -0.182898    1.019338   -0.089413
O     0.407586    2.679009   -0.220915   -1.143523   -0.153616   -0.018135
H     2.049390   -1.391228    0.161133    0.121735   -0.181941    0.020383
H    -1.988022    1.272329   -0.171428    0.601998   -0.276505    0.044226
H     2.252183    1.104298   -0.038837    0.436152   -0.334545    0.039921
11
* Frequency(8)  393.7610
C     1.320183    0.583110   -0.021404    0.320153   -0.093613    0.016106
C     1.165082   -0.776186    0.086430    0.124377   -0.180371    0.018873
N    -0.003564   -1.420076    0.107686    0.103607   -0.302854    0.027739
C    -1.159357   -0.715588    0.017819    0.246215    0.007250    0.006270
N    -1.060766    0.711352   -0.097072    0.576604   -0.296623    0.039200
C     0.173077    1.423386   -0.122413    0.185496   -0.120782    0.015173
O    -2.252216   -1.316705    0.038220   -0.182898    1.019338   -0.089413
O     0.291714    2.663443   -0.222753   -1.143523   -0.153616   -0.018135
H     2.061725   -1.409664    0.163198    0.121735   -0.181941    0.020383
H    -1.927022    1.244311   -0.166946    0.601998   -0.276505    0.044226
H     2.296378    1.070399   -0.034791    0.436152   -0.334545    0.039921
11
* Frequency(8)  393.7610
C     1.356566    0.572472   -0.019574    0.320153   -0.093613    0.016106
C     1.179217   -0.796685    0.088575    0.124377   -0.180371    0.018873
N     0.008210   -1.454494    0.110838    0.103607   -0.302854    0.027739
C    -1.131376   -0.714764    0.018532    0.246215    0.007250    0.006270
N    -0.995238    0.677642   -0.092617    0.576604   -0.296623    0.039200
C     0.194158    1.409660   -0.120689    0.185496   -0.120782    0.015173
O    -2.273001   -1.200862    0.028059   -0.182898    1.019338   -0.089413
O     0.161758    2.645985   -0.224814   -1.143523   -0.153616   -0.018135
H     2.075560   -1.430341    0.165515    0.121735   -0.181941    0.020383
H    -1.858608    1.212888   -0.161920    0.601998   -0.276505    0.044226
H     2.345944    1.032379   -0.030255    0.436152   -0.334545    0.039921
