11
* (null), Energy   -1000.0000000
C     1.589770    0.404289    0.010476   -0.000428    0.001664    0.023173
C     1.411370   -0.965186    0.118323   -0.005130    0.014567    0.179602
N     0.241399   -1.624530    0.140582    0.001052   -0.003735   -0.048959
C    -0.900298   -0.884733    0.048827    0.006372   -0.019132   -0.233661
N    -0.762264    0.508959   -0.063346    0.002036   -0.005223   -0.066872
C     0.427306    1.242907   -0.091179   -0.009231    0.027939    0.338739
O    -2.041444   -1.368814    0.058335   -0.001545    0.006006    0.073860
O     0.393949    2.478247   -0.194845    0.001680   -0.006738   -0.079547
H     2.308617   -1.598423    0.195226    0.002475   -0.009372   -0.106485
H    -1.625843    1.043584   -0.132009   -0.001285    0.006990    0.070068
H     2.579572    0.863274    0.000136    0.054040   -0.159855   -1.932019
11
* Frequency(14)  734.7971
C     1.589721    0.404478    0.013109   -0.000428    0.001664    0.023173
C     1.410787   -0.963531    0.138734   -0.005130    0.014567    0.179602
N     0.241518   -1.624954    0.135018    0.001052   -0.003735   -0.048959
C    -0.899574   -0.886908    0.022272    0.006372   -0.019132   -0.233661
N    -0.762033    0.508365   -0.070946    0.002036   -0.005223   -0.066872
C     0.426257    1.246082   -0.052683   -0.009231    0.027939    0.338739
O    -2.041619   -1.368131    0.066729   -0.001545    0.006006    0.073860
O     0.394139    2.477481   -0.203885    0.001680   -0.006738   -0.079547
H     2.308899   -1.599488    0.183124    0.002475   -0.009372   -0.106485
H    -1.625989    1.044379   -0.124047   -0.001285    0.006990    0.070068
H     2.585714    0.845108   -0.219428    0.054040   -0.159855   -1.932019
11
* Frequency(14)  734.7971
C     1.589678    0.404646    0.015457   -0.000428    0.001664    0.023173
C     1.410268   -0.962055    0.156933   -0.005130    0.014567    0.179602
N     0.241625   -1.625333    0.130057    0.001052   -0.003735   -0.048959
C    -0.898928   -0.888846   -0.001404    0.006372   -0.019132   -0.233661
N    -0.761827    0.507836   -0.077722    0.002036   -0.005223   -0.066872
C     0.425321    1.248913   -0.018359   -0.009231    0.027939    0.338739
O    -2.041776   -1.367523    0.074213   -0.001545    0.006006    0.073860
O     0.394310    2.476798   -0.211945    0.001680   -0.006738   -0.079547
H     2.309149   -1.600437    0.172334    0.002475   -0.009372   -0.106485
H    -1.626119    1.045087   -0.116947   -0.001285    0.006990    0.070068
H     2.591190    0.828910   -0.415198    0.054040   -0.159855   -1.932019
11
* Frequency(14)  734.7971
C     1.589645    0.404776    0.017266   -0.000428    0.001664    0.023173
C     1.409867   -0.960918    0.170948   -0.005130    0.014567    0.179602
N     0.241707   -1.625624    0.126237    0.001052   -0.003735   -0.048959
C    -0.898431   -0.890339   -0.019638    0.006372   -0.019132   -0.233661
N    -0.761668    0.507428   -0.082940    0.002036   -0.005223   -0.066872
C     0.424601    1.251093    0.008075   -0.009231    0.027939    0.338739
O    -2.041896   -1.367054    0.079977   -0.001545    0.006006    0.073860
O     0.394441    2.476272   -0.218153    0.001680   -0.006738   -0.079547
H     2.309343   -1.601169    0.164025    0.002475   -0.009372   -0.106485
H    -1.626220    1.045632   -0.111479   -0.001285    0.006990    0.070068
H     2.595407    0.816435   -0.565961    0.054040   -0.159855   -1.932019
11
* Frequency(14)  734.7971
C     1.589625    0.404853    0.018338   -0.000428    0.001664    0.023173
C     1.409630   -0.960244    0.179260   -0.005130    0.014567    0.179602
N     0.241756   -1.625797    0.123971    0.001052   -0.003735   -0.048959
C    -0.898136   -0.891225   -0.030452    0.006372   -0.019132   -0.233661
N    -0.761574    0.507187   -0.086035    0.002036   -0.005223   -0.066872
C     0.424174    1.252386    0.023752   -0.009231    0.027939    0.338739
O    -2.041968   -1.366776    0.083395   -0.001545    0.006006    0.073860
O     0.394519    2.475961   -0.221834    0.001680   -0.006738   -0.079547
H     2.309457   -1.601603    0.159096    0.002475   -0.009372   -0.106485
H    -1.626279    1.045956   -0.108236   -0.001285    0.006990    0.070068
H     2.597908    0.809037   -0.655379    0.054040   -0.159855   -1.932019
11
* Frequency(14)  734.7971
C     1.589621    0.404869    0.018559   -0.000428    0.001664    0.023173
C     1.409581   -0.960105    0.180969   -0.005130    0.014567    0.179602
N     0.241766   -1.625833    0.123505    0.001052   -0.003735   -0.048959
C    -0.898075   -0.891407   -0.032675    0.006372   -0.019132   -0.233661
N    -0.761554    0.507137   -0.086671    0.002036   -0.005223   -0.066872
C     0.424086    1.252652    0.026975   -0.009231    0.027939    0.338739
O    -2.041982   -1.366719    0.084098   -0.001545    0.006006    0.073860
O     0.394535    2.475896   -0.222591    0.001680   -0.006738   -0.079547
H     2.309481   -1.601692    0.158083    0.002475   -0.009372   -0.106485
H    -1.626291    1.046022   -0.107570   -0.001285    0.006990    0.070068
H     2.598422    0.807516   -0.673761    0.054040   -0.159855   -1.932019
11
* Frequency(14)  734.7971
C     1.589633    0.404822    0.017903   -0.000428    0.001664    0.023173
C     1.409726   -0.960517    0.175889   -0.005130    0.014567    0.179602
N     0.241736   -1.625727    0.124890    0.001052   -0.003735   -0.048959
C    -0.898256   -0.890866   -0.026066    0.006372   -0.019132   -0.233661
N    -0.761612    0.507285   -0.084780    0.002036   -0.005223   -0.066872
C     0.424347    1.251862    0.017394   -0.009231    0.027939    0.338739
O    -2.041939   -1.366889    0.082009   -0.001545    0.006006    0.073860
O     0.394487    2.476087   -0.220341    0.001680   -0.006738   -0.079547
H     2.309411   -1.601427    0.161095    0.002475   -0.009372   -0.106485
H    -1.626255    1.045825   -0.109551   -0.001285    0.006990    0.070068
H     2.596893    0.812037   -0.619116    0.054040   -0.159855   -1.932019
11
* Frequency(14)  734.7971
C     1.589660    0.404717    0.016443   -0.000428    0.001664    0.023173
C     1.410049   -0.961435    0.164571   -0.005130    0.014567    0.179602
N     0.241670   -1.625492    0.127975    0.001052   -0.003735   -0.048959
C    -0.898657   -0.889660   -0.011342    0.006372   -0.019132   -0.233661
N    -0.761740    0.507614   -0.080566    0.002036   -0.005223   -0.066872
C     0.424929    1.250101   -0.003952   -0.009231    0.027939    0.338739
O    -2.041841   -1.367267    0.077354   -0.001545    0.006006    0.073860
O     0.394381    2.476512   -0.215328    0.001680   -0.006738   -0.079547
H     2.309255   -1.600836    0.167806    0.002475   -0.009372   -0.106485
H    -1.626174    1.045384   -0.113967   -0.001285    0.006990    0.070068
H     2.593488    0.822111   -0.497365    0.054040   -0.159855   -1.932019
11
* Frequency(14)  734.7971
C     1.589699    0.404566    0.014336   -0.000428    0.001664    0.023173
C     1.410516   -0.962760    0.148241   -0.005130    0.014567    0.179602
N     0.241574   -1.625152    0.132427    0.001052   -0.003735   -0.048959
C    -0.899236   -0.887920    0.009903    0.006372   -0.019132   -0.233661
N    -0.761925    0.508089   -0.074486    0.002036   -0.005223   -0.066872
C     0.425768    1.247561   -0.034751   -0.009231    0.027939    0.338739
O    -2.041701   -1.367813    0.070639   -0.001545    0.006006    0.073860
O     0.394228    2.477124   -0.208096    0.001680   -0.006738   -0.079547
H     2.309030   -1.599984    0.177487    0.002475   -0.009372   -0.106485
H    -1.626057    1.044749   -0.120337   -0.001285    0.006990    0.070068
H     2.588574    0.836645   -0.321703    0.054040   -0.159855   -1.932019
11
* Frequency(14)  734.7971
C     1.589745    0.404385    0.011811   -0.000428    0.001664    0.023173
C     1.411075   -0.964347    0.128669   -0.005130    0.014567    0.179602
N     0.241460   -1.624745    0.137762    0.001052   -0.003735   -0.048959
C    -0.899931   -0.885836    0.035366    0.006372   -0.019132   -0.233661
N    -0.762147    0.508658   -0.067198    0.002036   -0.005223   -0.066872
C     0.426774    1.244517   -0.071665   -0.009231    0.027939    0.338739
O    -2.041533   -1.368468    0.062590   -0.001545    0.006006    0.073860
O     0.394045    2.477859   -0.199427    0.001680   -0.006738   -0.079547
H     2.308760   -1.598963    0.189091    0.002475   -0.009372   -0.106485
H    -1.625917    1.043987   -0.127973   -0.001285    0.006990    0.070068
H     2.582686    0.854065   -0.111164    0.054040   -0.159855   -1.932019
11
* Frequency(14)  734.7971
C     1.589795    0.404193    0.009141   -0.000428    0.001664    0.023173
C     1.411666   -0.966026    0.107976   -0.005130    0.014567    0.179602
N     0.241338   -1.624314    0.143403    0.001052   -0.003735   -0.048959
C    -0.900665   -0.883631    0.062288    0.006372   -0.019132   -0.233661
N    -0.762382    0.509260   -0.059494    0.002036   -0.005223   -0.066872
C     0.427838    1.241298   -0.110693   -0.009231    0.027939    0.338739
O    -2.041355   -1.369160    0.054080   -0.001545    0.006006    0.073860
O     0.393852    2.478635   -0.190262    0.001680   -0.006738   -0.079547
H     2.308475   -1.597883    0.201360    0.002475   -0.009372   -0.106485
H    -1.625769    1.043182   -0.136046   -0.001285    0.006990    0.070068
H     2.576459    0.872483    0.111436    0.054040   -0.159855   -1.932019
11
* Frequency(14)  734.7971
C     1.589841    0.404012    0.006616   -0.000428    0.001664    0.023173
C     1.412225   -0.967613    0.088404   -0.005130    0.014567    0.179602
N     0.241224   -1.623907    0.148738    0.001052   -0.003735   -0.048959
C    -0.901359   -0.881547    0.087750    0.006372   -0.019132   -0.233661
N    -0.762604    0.509829   -0.052207    0.002036   -0.005223   -0.066872
C     0.428843    1.238253   -0.147606   -0.009231    0.027939    0.338739
O    -2.041186   -1.369814    0.046031   -0.001545    0.006006    0.073860
O     0.393669    2.479369   -0.181594    0.001680   -0.006738   -0.079547
H     2.308205   -1.596861    0.212964    0.002475   -0.009372   -0.106485
H    -1.625629    1.042420   -0.143681   -0.001285    0.006990    0.070068
H     2.570570    0.889903    0.321975    0.054040   -0.159855   -1.932019
11
* Frequency(14)  734.7971
C     1.589880    0.403860    0.004509   -0.000428    0.001664    0.023173
C     1.412691   -0.968938    0.072075   -0.005130    0.014567    0.179602
N     0.241128   -1.623568    0.153189    0.001052   -0.003735   -0.048959
C    -0.901939   -0.879807    0.108995    0.006372   -0.019132   -0.233661
N    -0.762789    0.510304   -0.046126    0.002036   -0.005223   -0.066872
C     0.429683    1.235713   -0.178405   -0.009231    0.027939    0.338739
O    -2.041046   -1.370360    0.039316   -0.001545    0.006006    0.073860
O     0.393516    2.479982   -0.174361    0.001680   -0.006738   -0.079547
H     2.307980   -1.596009    0.222646    0.002475   -0.009372   -0.106485
H    -1.625512    1.041785   -0.150052   -0.001285    0.006990    0.070068
H     2.565657    0.904437    0.497638    0.054040   -0.159855   -1.932019
11
* Frequency(14)  734.7971
C     1.589907    0.403756    0.003049   -0.000428    0.001664    0.023173
C     1.413015   -0.969856    0.060757   -0.005130    0.014567    0.179602
N     0.241062   -1.623332    0.156275    0.001052   -0.003735   -0.048959
C    -0.902340   -0.878601    0.123720    0.006372   -0.019132   -0.233661
N    -0.762917    0.510633   -0.041912    0.002036   -0.005223   -0.066872
C     0.430264    1.233952   -0.199751   -0.009231    0.027939    0.338739
O    -2.040949   -1.370739    0.034661   -0.001545    0.006006    0.073860
O     0.393410    2.480406   -0.169348    0.001680   -0.006738   -0.079547
H     2.307824   -1.595419    0.229357    0.002475   -0.009372   -0.106485
H    -1.625431    1.041344   -0.154468   -0.001285    0.006990    0.070068
H     2.562252    0.914511    0.619388    0.054040   -0.159855   -1.932019
11
* Frequency(14)  734.7971
C     1.589920    0.403708    0.002393   -0.000428    0.001664    0.023173
C     1.413160   -0.970268    0.055677   -0.005130    0.014567    0.179602
N     0.241032   -1.623227    0.157659    0.001052   -0.003735   -0.048959
C    -0.902521   -0.878060    0.130329    0.006372   -0.019132   -0.233661
N    -0.762975    0.510781   -0.040021    0.002036   -0.005223   -0.066872
C     0.430525    1.233162   -0.209332   -0.009231    0.027939    0.338739
O    -2.040905   -1.370909    0.032572   -0.001545    0.006006    0.073860
O     0.393363    2.480597   -0.167098    0.001680   -0.006738   -0.079547
H     2.307754   -1.595153    0.232368    0.002475   -0.009372   -0.106485
H    -1.625395    1.041146   -0.156449   -0.001285    0.006990    0.070068
H     2.560723    0.919032    0.674034    0.054040   -0.159855   -1.932019
11
* Frequency(14)  734.7971
C     1.589915    0.403724    0.002614   -0.000428    0.001664    0.023173
C     1.413111   -0.970129    0.057386   -0.005130    0.014567    0.179602
N     0.241042   -1.623262    0.157194    0.001052   -0.003735   -0.048959
C    -0.902460   -0.878242    0.128106    0.006372   -0.019132   -0.233661
N    -0.762955    0.510731   -0.040657    0.002036   -0.005223   -0.066872
C     0.430438    1.233428   -0.206109   -0.009231    0.027939    0.338739
O    -2.040920   -1.370852    0.033275   -0.001545    0.006006    0.073860
O     0.393379    2.480533   -0.167855    0.001680   -0.006738   -0.079547
H     2.307777   -1.595243    0.231355    0.002475   -0.009372   -0.106485
H    -1.625407    1.041213   -0.155783   -0.001285    0.006990    0.070068
H     2.561237    0.917511    0.655651    0.054040   -0.159855   -1.932019
11
* Frequency(14)  734.7971
C     1.589896    0.403801    0.003686   -0.000428    0.001664    0.023173
C     1.412873   -0.969455    0.065698   -0.005130    0.014567    0.179602
N     0.241091   -1.623435    0.154928    0.001052   -0.003735   -0.048959
C    -0.902165   -0.879128    0.117291    0.006372   -0.019132   -0.233661
N    -0.762861    0.510489   -0.043752    0.002036   -0.005223   -0.066872
C     0.430010    1.234721   -0.190432   -0.009231    0.027939    0.338739
O    -2.040991   -1.370574    0.036693   -0.001545    0.006006    0.073860
O     0.393456    2.480221   -0.171537    0.001680   -0.006738   -0.079547
H     2.307892   -1.595676    0.226427    0.002475   -0.009372   -0.106485
H    -1.625466    1.041536   -0.152540   -0.001285    0.006990    0.070068
H     2.563738    0.910113    0.566234    0.054040   -0.159855   -1.932019
11
* Frequency(14)  734.7971
C     1.589862    0.403931    0.005494   -0.000428    0.001664    0.023173
C     1.412473   -0.968318    0.079713   -0.005130    0.014567    0.179602
N     0.241173   -1.623727    0.151107    0.001052   -0.003735   -0.048959
C    -0.901668   -0.880621    0.099058    0.006372   -0.019132   -0.233661
N    -0.762702    0.510082   -0.048970    0.002036   -0.005223   -0.066872
C     0.429290    1.236901   -0.163999   -0.009231    0.027939    0.338739
O    -2.041112   -1.370105    0.042457   -0.001545    0.006006    0.073860
O     0.393587    2.479695   -0.177744    0.001680   -0.006738   -0.079547
H     2.308085   -1.596408    0.218117    0.002475   -0.009372   -0.106485
H    -1.625567    1.042082   -0.147072   -0.001285    0.006990    0.070068
H     2.567955    0.897639    0.415471    0.054040   -0.159855   -1.932019
11
* Frequency(14)  734.7971
C     1.589819    0.404100    0.007842   -0.000428    0.001664    0.023173
C     1.411953   -0.966842    0.097912   -0.005130    0.014567    0.179602
N     0.241279   -1.624105    0.146146    0.001052   -0.003735   -0.048959
C    -0.901022   -0.882559    0.075381    0.006372   -0.019132   -0.233661
N    -0.762496    0.509552   -0.055746    0.002036   -0.005223   -0.066872
C     0.428355    1.239732   -0.129675   -0.009231    0.027939    0.338739
O    -2.041268   -1.369496    0.049941   -0.001545    0.006006    0.073860
O     0.393758    2.479013   -0.185805    0.001680   -0.006738   -0.079547
H     2.308336   -1.597357    0.207327    0.002475   -0.009372   -0.106485
H    -1.625697    1.042790   -0.139972   -0.001285    0.006990    0.070068
H     2.573431    0.881441    0.219700    0.054040   -0.159855   -1.932019
11
* Frequency(14)  734.7971
C     1.589770    0.404289    0.010476   -0.000428    0.001664    0.023173
C     1.411370   -0.965186    0.118323   -0.005130    0.014567    0.179602
N     0.241399   -1.624530    0.140582    0.001052   -0.003735   -0.048959
C    -0.900298   -0.884733    0.048827    0.006372   -0.019132   -0.233661
N    -0.762264    0.508959   -0.063346    0.002036   -0.005223   -0.066872
C     0.427306    1.242907   -0.091179   -0.009231    0.027939    0.338739
O    -2.041444   -1.368814    0.058335   -0.001545    0.006006    0.073860
O     0.393949    2.478247   -0.194845    0.001680   -0.006738   -0.079547
H     2.308617   -1.598423    0.195226    0.002475   -0.009372   -0.106485
H    -1.625843    1.043584   -0.132009   -0.001285    0.006990    0.070068
H     2.579572    0.863274    0.000136    0.054040   -0.159855   -1.932019
