11
* (null), Energy   -1000.0000000
C     1.589770    0.404289    0.010476   -0.135794   -0.169527    0.010159
C     1.411370   -0.965186    0.118323   -0.053766    0.153554   -0.013867
N     0.241399   -1.624530    0.140582    0.200493    0.102885   -0.003217
C    -0.900298   -0.884733    0.048827    0.008524   -0.070262    0.006323
N    -0.762264    0.508959   -0.063346   -0.061835    0.050689   -0.005942
C     0.427306    1.242907   -0.091179    0.050817    0.004696    0.001003
O    -2.041444   -1.368814    0.058335   -0.063345    0.012628   -0.002794
O     0.393949    2.478247   -0.194845   -0.017679   -0.036854    0.002537
H     2.308617   -1.598423    0.195226    0.343175    0.717282   -0.050474
H    -1.625843    1.043584   -0.132009    0.023861    0.196391   -0.015852
H     2.579572    0.863274    0.000136    0.543856   -1.691582    0.154572
11
* Frequency(21) 1092.9702
C     1.574338    0.385023    0.011630   -0.135794   -0.169527    0.010159
C     1.405260   -0.947736    0.116747   -0.053766    0.153554   -0.013867
N     0.264184   -1.612837    0.140217    0.200493    0.102885   -0.003217
C    -0.899329   -0.892718    0.049545    0.008524   -0.070262    0.006323
N    -0.769292    0.514719   -0.064021   -0.061835    0.050689   -0.005942
C     0.433081    1.243441   -0.091065    0.050817    0.004696    0.001003
O    -2.048642   -1.367379    0.058018   -0.063345    0.012628   -0.002794
O     0.391939    2.474058   -0.194556   -0.017679   -0.036854    0.002537
H     2.347617   -1.516907    0.189490    0.343175    0.717282   -0.050474
H    -1.623131    1.065903   -0.133811    0.023861    0.196391   -0.015852
H     2.641379    0.671035    0.017703    0.543856   -1.691582    0.154572
11
* Frequency(21) 1092.9702
C     1.560578    0.367845    0.012660   -0.135794   -0.169527    0.010159
C     1.399812   -0.932176    0.115342   -0.053766    0.153554   -0.013867
N     0.284500   -1.602412    0.139891    0.200493    0.102885   -0.003217
C    -0.898466   -0.899838    0.050186    0.008524   -0.070262    0.006323
N    -0.775557    0.519856   -0.064624   -0.061835    0.050689   -0.005942
C     0.438230    1.243916   -0.090963    0.050817    0.004696    0.001003
O    -2.055061   -1.366099    0.057734   -0.063345    0.012628   -0.002794
O     0.390148    2.470324   -0.194299   -0.017679   -0.036854    0.002537
H     2.382391   -1.444225    0.184375    0.343175    0.717282   -0.050474
H    -1.620714    1.085803   -0.135417    0.023861    0.196391   -0.015852
H     2.696488    0.499627    0.033365    0.543856   -1.691582    0.154572
11
* Frequency(21) 1092.9702
C     1.549981    0.354616    0.013453   -0.135794   -0.169527    0.010159
C     1.395617   -0.920194    0.114260   -0.053766    0.153554   -0.013867
N     0.300145   -1.594384    0.139640    0.200493    0.102885   -0.003217
C    -0.897800   -0.905321    0.050680    0.008524   -0.070262    0.006323
N    -0.780382    0.523811   -0.065087   -0.061835    0.050689   -0.005942
C     0.442196    1.244283   -0.090885    0.050817    0.004696    0.001003
O    -2.060004   -1.365114    0.057516   -0.063345    0.012628   -0.002794
O     0.388769    2.467448   -0.194102   -0.017679   -0.036854    0.002537
H     2.409170   -1.388253    0.180437    0.343175    0.717282   -0.050474
H    -1.618852    1.101129   -0.136654    0.023861    0.196391   -0.015852
H     2.738927    0.367627    0.045427    0.543856   -1.691582    0.154572
11
* Frequency(21) 1092.9702
C     1.543697    0.346770    0.013923   -0.135794   -0.169527    0.010159
C     1.393128   -0.913087    0.113618   -0.053766    0.153554   -0.013867
N     0.309424   -1.589622    0.139491    0.200493    0.102885   -0.003217
C    -0.897406   -0.908573    0.050972    0.008524   -0.070262    0.006323
N    -0.783244    0.526157   -0.065362   -0.061835    0.050689   -0.005942
C     0.444548    1.244500   -0.090838    0.050817    0.004696    0.001003
O    -2.062936   -1.364529    0.057387   -0.063345    0.012628   -0.002794
O     0.387950    2.465742   -0.193984   -0.017679   -0.036854    0.002537
H     2.425053   -1.355056    0.178101    0.343175    0.717282   -0.050474
H    -1.617747    1.110218   -0.137388    0.023861    0.196391   -0.015852
H     2.764098    0.289337    0.052581    0.543856   -1.691582    0.154572
11
* Frequency(21) 1092.9702
C     1.542405    0.345157    0.014019   -0.135794   -0.169527    0.010159
C     1.392617   -0.911626    0.113486   -0.053766    0.153554   -0.013867
N     0.311332   -1.588643    0.139460    0.200493    0.102885   -0.003217
C    -0.897325   -0.909241    0.051032    0.008524   -0.070262    0.006323
N    -0.783833    0.526639   -0.065419   -0.061835    0.050689   -0.005942
C     0.445031    1.244545   -0.090829    0.050817    0.004696    0.001003
O    -2.063539   -1.364409    0.057361   -0.063345    0.012628   -0.002794
O     0.387782    2.465392   -0.193960   -0.017679   -0.036854    0.002537
H     2.428318   -1.348231    0.177620    0.343175    0.717282   -0.050474
H    -1.617520    1.112086   -0.137539    0.023861    0.196391   -0.015852
H     2.769272    0.273243    0.054052    0.543856   -1.691582    0.154572
11
* Frequency(21) 1092.9702
C     1.546245    0.349952    0.013732   -0.135794   -0.169527    0.010159
C     1.394137   -0.915969    0.113878   -0.053766    0.153554   -0.013867
N     0.305661   -1.591553    0.139551    0.200493    0.102885   -0.003217
C    -0.897566   -0.907254    0.050853    0.008524   -0.070262    0.006323
N    -0.782084    0.525206   -0.065251   -0.061835    0.050689   -0.005942
C     0.443594    1.244412   -0.090857    0.050817    0.004696    0.001003
O    -2.061747   -1.364766    0.057440   -0.063345    0.012628   -0.002794
O     0.388282    2.466434   -0.194032   -0.017679   -0.036854    0.002537
H     2.418612   -1.368519    0.179048    0.343175    0.717282   -0.050474
H    -1.618195    1.106532   -0.137090    0.023861    0.196391   -0.015852
H     2.753890    0.321087    0.049680    0.543856   -1.691582    0.154572
11
* Frequency(21) 1092.9702
C     1.554803    0.360635    0.013092   -0.135794   -0.169527    0.010159
C     1.397526   -0.925646    0.114752   -0.053766    0.153554   -0.013867
N     0.293027   -1.598036    0.139754    0.200493    0.102885   -0.003217
C    -0.898103   -0.902826    0.050455    0.008524   -0.070262    0.006323
N    -0.778187    0.522011   -0.064876   -0.061835    0.050689   -0.005942
C     0.440391    1.244116   -0.090920    0.050817    0.004696    0.001003
O    -2.057755   -1.365562    0.057616   -0.063345    0.012628   -0.002794
O     0.389396    2.468757   -0.194192   -0.017679   -0.036854    0.002537
H     2.396986   -1.413720    0.182229    0.343175    0.717282   -0.050474
H    -1.619699    1.094156   -0.136091    0.023861    0.196391   -0.015852
H     2.719617    0.427686    0.039939    0.543856   -1.691582    0.154572
11
* Frequency(21) 1092.9702
C     1.567149    0.376049    0.012168   -0.135794   -0.169527    0.010159
C     1.402414   -0.939607    0.116013   -0.053766    0.153554   -0.013867
N     0.274797   -1.607391    0.140046    0.200493    0.102885   -0.003217
C    -0.898878   -0.896438    0.049880    0.008524   -0.070262    0.006323
N    -0.772565    0.517403   -0.064336   -0.061835    0.050689   -0.005942
C     0.435771    1.243689   -0.091012    0.050817    0.004696    0.001003
O    -2.051996   -1.366710    0.057870   -0.063345    0.012628   -0.002794
O     0.391004    2.472107   -0.194422   -0.017679   -0.036854    0.002537
H     2.365784   -1.478937    0.186818    0.343175    0.717282   -0.050474
H    -1.621868    1.076300   -0.134650    0.023861    0.196391   -0.015852
H     2.670169    0.581488    0.025885    0.543856   -1.691582    0.154572
11
* Frequency(21) 1092.9702
C     1.581947    0.394523    0.011061   -0.135794   -0.169527    0.010159
C     1.408273   -0.956340    0.117524   -0.053766    0.153554   -0.013867
N     0.252949   -1.618603    0.140397    0.200493    0.102885   -0.003217
C    -0.899807   -0.888781    0.049191    0.008524   -0.070262    0.006323
N    -0.765827    0.511879   -0.063688   -0.061835    0.050689   -0.005942
C     0.430233    1.243178   -0.091121    0.050817    0.004696    0.001003
O    -2.045093   -1.368086    0.058174   -0.063345    0.012628   -0.002794
O     0.392930    2.476124   -0.194699   -0.017679   -0.036854    0.002537
H     2.328387   -1.557101    0.192318    0.343175    0.717282   -0.050474
H    -1.624468    1.054898   -0.132923    0.023861    0.196391   -0.015852
H     2.610903    0.765825    0.009041    0.543856   -1.691582    0.154572
11
* Frequency(21) 1092.9702
C     1.597593    0.414055    0.009891   -0.135794   -0.169527    0.010159
C     1.414468   -0.974032    0.119122   -0.053766    0.153554   -0.013867
N     0.229849   -1.630457    0.140768    0.200493    0.102885   -0.003217
C    -0.900789   -0.880686    0.048463    0.008524   -0.070262    0.006323
N    -0.758702    0.506039   -0.063004   -0.061835    0.050689   -0.005942
C     0.424378    1.242637   -0.091236    0.050817    0.004696    0.001003
O    -2.037794   -1.369541    0.058496   -0.063345    0.012628   -0.002794
O     0.394967    2.480370   -0.194991   -0.017679   -0.036854    0.002537
H     2.288848   -1.639744    0.198134    0.343175    0.717282   -0.050474
H    -1.627218    1.032271   -0.131096    0.023861    0.196391   -0.015852
H     2.548242    0.960723   -0.008768    0.543856   -1.691582    0.154572
11
* Frequency(21) 1092.9702
C     1.612391    0.432529    0.008784   -0.135794   -0.169527    0.010159
C     1.420327   -0.990766    0.120633   -0.053766    0.153554   -0.013867
N     0.208001   -1.641668    0.141118    0.200493    0.102885   -0.003217
C    -0.901718   -0.873029    0.047774    0.008524   -0.070262    0.006323
N    -0.751964    0.500515   -0.062356   -0.061835    0.050689   -0.005942
C     0.418841    1.242125   -0.091346    0.050817    0.004696    0.001003
O    -2.030891   -1.370917    0.058800   -0.063345    0.012628   -0.002794
O     0.396894    2.484386   -0.195267   -0.017679   -0.036854    0.002537
H     2.251451   -1.717909    0.203634    0.343175    0.717282   -0.050474
H    -1.629818    1.010869   -0.129369    0.023861    0.196391   -0.015852
H     2.488976    1.145061   -0.025612    0.543856   -1.691582    0.154572
11
* Frequency(21) 1092.9702
C     1.624738    0.447942    0.007860   -0.135794   -0.169527    0.010159
C     1.425215   -1.004727    0.121894   -0.053766    0.153554   -0.013867
N     0.189771   -1.651023    0.141411    0.200493    0.102885   -0.003217
C    -0.902493   -0.866641    0.047199    0.008524   -0.070262    0.006323
N    -0.746342    0.495906   -0.061816   -0.061835    0.050689   -0.005942
C     0.414220    1.241698   -0.091437    0.050817    0.004696    0.001003
O    -2.025132   -1.372065    0.059054   -0.063345    0.012628   -0.002794
O     0.398501    2.487737   -0.195498   -0.017679   -0.036854    0.002537
H     2.220249   -1.783125    0.208223    0.343175    0.717282   -0.050474
H    -1.631987    0.993013   -0.127928    0.023861    0.196391   -0.015852
H     2.439528    1.298862   -0.039666    0.543856   -1.691582    0.154572
11
* Frequency(21) 1092.9702
C     1.633295    0.458626    0.007220   -0.135794   -0.169527    0.010159
C     1.428603   -1.014404    0.122768   -0.053766    0.153554   -0.013867
N     0.177137   -1.657506    0.141613    0.200493    0.102885   -0.003217
C    -0.903030   -0.862213    0.046800    0.008524   -0.070262    0.006323
N    -0.742445    0.492712   -0.061441   -0.061835    0.050689   -0.005942
C     0.411018    1.241402   -0.091500    0.050817    0.004696    0.001003
O    -2.021140   -1.372861    0.059230   -0.063345    0.012628   -0.002794
O     0.399615    2.490059   -0.195658   -0.017679   -0.036854    0.002537
H     2.198623   -1.828326    0.211404    0.343175    0.717282   -0.050474
H    -1.633491    0.980637   -0.126929    0.023861    0.196391   -0.015852
H     2.405255    1.405461   -0.049407    0.543856   -1.691582    0.154572
11
* Frequency(21) 1092.9702
C     1.637136    0.463420    0.006932   -0.135794   -0.169527    0.010159
C     1.430124   -1.018747    0.123160   -0.053766    0.153554   -0.013867
N     0.171466   -1.660416    0.141704    0.200493    0.102885   -0.003217
C    -0.903271   -0.860226    0.046621    0.008524   -0.070262    0.006323
N    -0.740696    0.491278   -0.061273   -0.061835    0.050689   -0.005942
C     0.409580    1.241269   -0.091529    0.050817    0.004696    0.001003
O    -2.019349   -1.373218    0.059309   -0.063345    0.012628   -0.002794
O     0.400115    2.491102   -0.195730   -0.017679   -0.036854    0.002537
H     2.188916   -1.848614    0.212831    0.343175    0.717282   -0.050474
H    -1.634166    0.975082   -0.126480    0.023861    0.196391   -0.015852
H     2.389873    1.453306   -0.053779    0.543856   -1.691582    0.154572
11
* Frequency(21) 1092.9702
C     1.635844    0.461807    0.007029   -0.135794   -0.169527    0.010159
C     1.429613   -1.017286    0.123028   -0.053766    0.153554   -0.013867
N     0.173374   -1.659438    0.141674    0.200493    0.102885   -0.003217
C    -0.903190   -0.860894    0.046682    0.008524   -0.070262    0.006323
N    -0.741284    0.491761   -0.061330   -0.061835    0.050689   -0.005942
C     0.410064    1.241314   -0.091519    0.050817    0.004696    0.001003
O    -2.019951   -1.373098    0.059283   -0.063345    0.012628   -0.002794
O     0.399947    2.490751   -0.195705   -0.017679   -0.036854    0.002537
H     2.192182   -1.841789    0.212351    0.343175    0.717282   -0.050474
H    -1.633939    0.976951   -0.126631    0.023861    0.196391   -0.015852
H     2.395047    1.437211   -0.052308    0.543856   -1.691582    0.154572
11
* Frequency(21) 1092.9702
C     1.629559    0.453961    0.007499   -0.135794   -0.169527    0.010159
C     1.427124   -1.010179    0.122386   -0.053766    0.153554   -0.013867
N     0.182653   -1.654676    0.141525    0.200493    0.102885   -0.003217
C    -0.902796   -0.864146    0.046974    0.008524   -0.070262    0.006323
N    -0.744146    0.494106   -0.061605   -0.061835    0.050689   -0.005942
C     0.412416    1.241531   -0.091473    0.050817    0.004696    0.001003
O    -2.022883   -1.372514    0.059154   -0.063345    0.012628   -0.002794
O     0.399129    2.489045   -0.195588   -0.017679   -0.036854    0.002537
H     2.208064   -1.808592    0.210015    0.343175    0.717282   -0.050474
H    -1.632835    0.986040   -0.127365    0.023861    0.196391   -0.015852
H     2.420218    1.358922   -0.045154    0.543856   -1.691582    0.154572
11
* Frequency(21) 1092.9702
C     1.618962    0.440733    0.008292   -0.135794   -0.169527    0.010159
C     1.422929   -0.998197    0.121304   -0.053766    0.153554   -0.013867
N     0.198298   -1.646647    0.141274    0.200493    0.102885   -0.003217
C    -0.902130   -0.869629    0.047468    0.008524   -0.070262    0.006323
N    -0.748971    0.498062   -0.062069   -0.061835    0.050689   -0.005942
C     0.416381    1.241898   -0.091394    0.050817    0.004696    0.001003
O    -2.027826   -1.371528    0.058936   -0.063345    0.012628   -0.002794
O     0.397749    2.486170   -0.195390   -0.017679   -0.036854    0.002537
H     2.234844   -1.752620    0.206076    0.343175    0.717282   -0.050474
H    -1.630973    1.001365   -0.128602    0.023861    0.196391   -0.015852
H     2.462657    1.226921   -0.033093    0.543856   -1.691582    0.154572
11
* Frequency(21) 1092.9702
C     1.605202    0.423555    0.009321   -0.135794   -0.169527    0.010159
C     1.417481   -0.982637    0.119899   -0.053766    0.153554   -0.013867
N     0.218614   -1.636222    0.140948    0.200493    0.102885   -0.003217
C    -0.901267   -0.876749    0.048108    0.008524   -0.070262    0.006323
N    -0.755237    0.503198   -0.062671   -0.061835    0.050689   -0.005942
C     0.421531    1.242373   -0.091293    0.050817    0.004696    0.001003
O    -2.034245   -1.370249    0.058653   -0.063345    0.012628   -0.002794
O     0.395958    2.482435   -0.195133   -0.017679   -0.036854    0.002537
H     2.269617   -1.679938    0.200962    0.343175    0.717282   -0.050474
H    -1.628555    1.021266   -0.130208    0.023861    0.196391   -0.015852
H     2.517766    1.055514   -0.017430    0.543856   -1.691582    0.154572
11
* Frequency(21) 1092.9702
C     1.589770    0.404289    0.010476   -0.135794   -0.169527    0.010159
C     1.411370   -0.965186    0.118323   -0.053766    0.153554   -0.013867
N     0.241399   -1.624530    0.140582    0.200493    0.102885   -0.003217
C    -0.900298   -0.884733    0.048827    0.008524   -0.070262    0.006323
N    -0.762264    0.508959   -0.063346   -0.061835    0.050689   -0.005942
C     0.427306    1.242907   -0.091179    0.050817    0.004696    0.001003
O    -2.041444   -1.368814    0.058335   -0.063345    0.012628   -0.002794
O     0.393949    2.478247   -0.194845   -0.017679   -0.036854    0.002537
H     2.308617   -1.598423    0.195226    0.343175    0.717282   -0.050474
H    -1.625843    1.043584   -0.132009    0.023861    0.196391   -0.015852
H     2.579572    0.863274    0.000136    0.543856   -1.691582    0.154572
