11
* (null), Energy   -1000.0000000
C     1.589770    0.404289    0.010476   -0.114208    0.018471   -0.004664
C     1.411370   -0.965186    0.118323   -0.278149   -0.040367   -0.004278
N     0.241399   -1.624530    0.140582    0.376120    0.112109    0.000715
C    -0.900298   -0.884733    0.048827    0.039333   -0.232432    0.020787
N    -0.762264    0.508959   -0.063346   -0.200371   -0.006600   -0.004918
C     0.427306    1.242907   -0.091179    0.286829   -0.018384    0.009595
O    -2.041444   -1.368814    0.058335    0.001297    0.084252   -0.006999
O     0.393949    2.478247   -0.194845   -0.029417    0.031175   -0.003515
H     2.308617   -1.598423    0.195226   -1.121512   -1.197450    0.068628
H    -1.625843    1.043584   -0.132009    0.238350    0.720501   -0.054531
H     2.579572    0.863274    0.000136   -0.323937    0.428292   -0.044295
11
* Frequency(23) 1317.3016
C     1.576791    0.406388    0.009946   -0.114208    0.018471   -0.004664
C     1.379760   -0.969774    0.117837   -0.278149   -0.040367   -0.004278
N     0.284143   -1.611789    0.140664    0.376120    0.112109    0.000715
C    -0.895828   -0.911148    0.051189    0.039333   -0.232432    0.020787
N    -0.785035    0.508209   -0.063905   -0.200371   -0.006600   -0.004918
C     0.459902    1.240818   -0.090088    0.286829   -0.018384    0.009595
O    -2.041296   -1.359239    0.057540    0.001297    0.084252   -0.006999
O     0.390605    2.481790   -0.195244   -0.029417    0.031175   -0.003515
H     2.181163   -1.734507    0.203025   -1.121512   -1.197450    0.068628
H    -1.598756    1.125466   -0.138207    0.238350    0.720501   -0.054531
H     2.542759    0.911947   -0.004898   -0.323937    0.428292   -0.044295
11
* Frequency(23) 1317.3016
C     1.565218    0.408260    0.009473   -0.114208    0.018471   -0.004664
C     1.351576   -0.973864    0.117403   -0.278149   -0.040367   -0.004278
N     0.322255   -1.600429    0.140736    0.376120    0.112109    0.000715
C    -0.891842   -0.934700    0.053296    0.039333   -0.232432    0.020787
N    -0.805339    0.507540   -0.064403   -0.200371   -0.006600   -0.004918
C     0.488967    1.238955   -0.089116    0.286829   -0.018384    0.009595
O    -2.041165   -1.350702    0.056830    0.001297    0.084252   -0.006999
O     0.387625    2.484949   -0.195600   -0.029417    0.031175   -0.003515
H     2.067521   -1.855844    0.209979   -1.121512   -1.197450    0.068628
H    -1.574604    1.198474   -0.143732    0.238350    0.720501   -0.054531
H     2.509934    0.955346   -0.009386   -0.323937    0.428292   -0.044295
11
* Frequency(23) 1317.3016
C     1.556306    0.409701    0.009109   -0.114208    0.018471   -0.004664
C     1.329870   -0.977014    0.117069   -0.278149   -0.040367   -0.004278
N     0.351605   -1.591681    0.140792    0.376120    0.112109    0.000715
C    -0.888773   -0.952838    0.054918    0.039333   -0.232432    0.020787
N    -0.820975    0.507025   -0.064787   -0.200371   -0.006600   -0.004918
C     0.511349    1.237520   -0.088367    0.286829   -0.018384    0.009595
O    -2.041064   -1.344127    0.056284    0.001297    0.084252   -0.006999
O     0.385329    2.487381   -0.195875   -0.029417    0.031175   -0.003515
H     1.980005   -1.949285    0.215334   -1.121512   -1.197450    0.068628
H    -1.556004    1.254697   -0.147988    0.238350    0.720501   -0.054531
H     2.484656    0.988767   -0.012842   -0.323937    0.428292   -0.044295
11
* Frequency(23) 1317.3016
C     1.551020    0.410556    0.008894   -0.114208    0.018471   -0.004664
C     1.316997   -0.978883    0.116871   -0.278149   -0.040367   -0.004278
N     0.369013   -1.586492    0.140825    0.376120    0.112109    0.000715
C    -0.886953   -0.963595    0.055880    0.039333   -0.232432    0.020787
N    -0.830248    0.506720   -0.065015   -0.200371   -0.006600   -0.004918
C     0.524624    1.236669   -0.087923    0.286829   -0.018384    0.009595
O    -2.041004   -1.340228    0.055960    0.001297    0.084252   -0.006999
O     0.383968    2.488824   -0.196037   -0.029417    0.031175   -0.003515
H     1.928099   -2.004705    0.218511   -1.121512   -1.197450    0.068628
H    -1.544973    1.288043   -0.150511    0.238350    0.720501   -0.054531
H     2.469664    1.008590   -0.014892   -0.323937    0.428292   -0.044295
11
* Frequency(23) 1317.3016
C     1.549934    0.410731    0.008849   -0.114208    0.018471   -0.004664
C     1.314351   -0.979267    0.116831   -0.278149   -0.040367   -0.004278
N     0.372591   -1.585425    0.140832    0.376120    0.112109    0.000715
C    -0.886578   -0.965807    0.056078    0.039333   -0.232432    0.020787
N    -0.832155    0.506657   -0.065061   -0.200371   -0.006600   -0.004918
C     0.527353    1.236494   -0.087832    0.286829   -0.018384    0.009595
O    -2.040991   -1.339426    0.055894    0.001297    0.084252   -0.006999
O     0.383688    2.489121   -0.196071   -0.029417    0.031175   -0.003515
H     1.917429   -2.016099    0.219164   -1.121512   -1.197450    0.068628
H    -1.542705    1.294899   -0.151030    0.238350    0.720501   -0.054531
H     2.466582    1.012664   -0.015314   -0.323937    0.428292   -0.044295
11
* Frequency(23) 1317.3016
C     1.553164    0.410209    0.008981   -0.114208    0.018471   -0.004664
C     1.322218   -0.978125    0.116952   -0.278149   -0.040367   -0.004278
N     0.361953   -1.588596    0.140811    0.376120    0.112109    0.000715
C    -0.887691   -0.959233    0.055490    0.039333   -0.232432    0.020787
N    -0.826487    0.506843   -0.064922   -0.200371   -0.006600   -0.004918
C     0.519240    1.237014   -0.088103    0.286829   -0.018384    0.009595
O    -2.041028   -1.341809    0.056092    0.001297    0.084252   -0.006999
O     0.384520    2.488239   -0.195972   -0.029417    0.031175   -0.003515
H     1.949149   -1.982230    0.217223   -1.121512   -1.197450    0.068628
H    -1.549447    1.274520   -0.149488    0.238350    0.720501   -0.054531
H     2.475744    1.000551   -0.014061   -0.323937    0.428292   -0.044295
11
* Frequency(23) 1317.3016
C     1.560361    0.409045    0.009275   -0.114208    0.018471   -0.004664
C     1.339746   -0.975581    0.117221   -0.278149   -0.040367   -0.004278
N     0.338251   -1.595661    0.140766    0.376120    0.112109    0.000715
C    -0.890169   -0.944585    0.054180    0.039333   -0.232432    0.020787
N    -0.813861    0.507259   -0.064612   -0.200371   -0.006600   -0.004918
C     0.501165    1.238173   -0.088708    0.286829   -0.018384    0.009595
O    -2.041110   -1.347119    0.056533    0.001297    0.084252   -0.006999
O     0.386374    2.486274   -0.195750   -0.029417    0.031175   -0.003515
H     2.019824   -1.906770    0.212898   -1.121512   -1.197450    0.068628
H    -1.564467    1.229116   -0.146051    0.238350    0.720501   -0.054531
H     2.496158    0.973561   -0.011270   -0.323937    0.428292   -0.044295
11
* Frequency(23) 1317.3016
C     1.570745    0.407366    0.009699   -0.114208    0.018471   -0.004664
C     1.365036   -0.971911    0.117610   -0.278149   -0.040367   -0.004278
N     0.304054   -1.605854    0.140701    0.376120    0.112109    0.000715
C    -0.893746   -0.923452    0.052290    0.039333   -0.232432    0.020787
N    -0.795642    0.507859   -0.064165   -0.200371   -0.006600   -0.004918
C     0.475086    1.239845   -0.089580    0.286829   -0.018384    0.009595
O    -2.041228   -1.354779    0.057169    0.001297    0.084252   -0.006999
O     0.389048    2.483440   -0.195430   -0.029417    0.031175   -0.003515
H     2.121794   -1.797896    0.206658   -1.121512   -1.197450    0.068628
H    -1.586138    1.163607   -0.141093    0.238350    0.720501   -0.054531
H     2.525610    0.934620   -0.007242   -0.323937    0.428292   -0.044295
11
* Frequency(23) 1317.3016
C     1.583191    0.405353    0.010207   -0.114208    0.018471   -0.004664
C     1.395347   -0.967512    0.118076   -0.278149   -0.040367   -0.004278
N     0.263067   -1.618071    0.140623    0.376120    0.112109    0.000715
C    -0.898032   -0.898123    0.050024    0.039333   -0.232432    0.020787
N    -0.773807    0.508579   -0.063629   -0.200371   -0.006600   -0.004918
C     0.443829    1.241848   -0.090626    0.286829   -0.018384    0.009595
O    -2.041369   -1.363960    0.057932    0.001297    0.084252   -0.006999
O     0.392254    2.480043   -0.195047   -0.029417    0.031175   -0.003515
H     2.244009   -1.667405    0.199179   -1.121512   -1.197450    0.068628
H    -1.612112    1.085091   -0.135151    0.238350    0.720501   -0.054531
H     2.560911    0.887947   -0.002415   -0.323937    0.428292   -0.044295
11
* Frequency(23) 1317.3016
C     1.596349    0.403225    0.010745   -0.114208    0.018471   -0.004664
C     1.427394   -0.962861    0.118569   -0.278149   -0.040367   -0.004278
N     0.219731   -1.630988    0.140541    0.376120    0.112109    0.000715
C    -0.902564   -0.871344    0.047629    0.039333   -0.232432    0.020787
N    -0.750721    0.509339   -0.063063   -0.200371   -0.006600   -0.004918
C     0.410782    1.243966   -0.091731    0.286829   -0.018384    0.009595
O    -2.041518   -1.373667    0.058738    0.001297    0.084252   -0.006999
O     0.395643    2.476451   -0.194642   -0.029417    0.031175   -0.003515
H     2.373226   -1.529440    0.191272   -1.121512   -1.197450    0.068628
H    -1.639574    1.002078   -0.128868    0.238350    0.720501   -0.054531
H     2.598234    0.838601    0.002688   -0.323937    0.428292   -0.044295
11
* Frequency(23) 1317.3016
C     1.608795    0.401212    0.011253   -0.114208    0.018471   -0.004664
C     1.457705   -0.958462    0.119036   -0.278149   -0.040367   -0.004278
N     0.178744   -1.643205    0.140463    0.376120    0.112109    0.000715
C    -0.906850   -0.846015    0.045364    0.039333   -0.232432    0.020787
N    -0.728886    0.510058   -0.062527   -0.200371   -0.006600   -0.004918
C     0.379525    1.245970   -0.092777    0.286829   -0.018384    0.009595
O    -2.041660   -1.382849    0.059501    0.001297    0.084252   -0.006999
O     0.398849    2.473054   -0.194259   -0.029417    0.031175   -0.003515
H     2.495441   -1.398949    0.183794   -1.121512   -1.197450    0.068628
H    -1.665548    0.923562   -0.122926    0.238350    0.720501   -0.054531
H     2.633534    0.791929    0.007515   -0.323937    0.428292   -0.044295
11
* Frequency(23) 1317.3016
C     1.619179    0.399532    0.011677   -0.114208    0.018471   -0.004664
C     1.482995   -0.954792    0.119424   -0.278149   -0.040367   -0.004278
N     0.144547   -1.653398    0.140398    0.376120    0.112109    0.000715
C    -0.910426   -0.824882    0.043474    0.039333   -0.232432    0.020787
N    -0.710668    0.510658   -0.062080   -0.200371   -0.006600   -0.004918
C     0.353446    1.247641   -0.093650    0.286829   -0.018384    0.009595
O    -2.041778   -1.390509    0.060137    0.001297    0.084252   -0.006999
O     0.401524    2.470219   -0.193940   -0.029417    0.031175   -0.003515
H     2.597411   -1.290075    0.177554   -1.121512   -1.197450    0.068628
H    -1.687219    0.858053   -0.117968    0.238350    0.720501   -0.054531
H     2.662987    0.752987    0.011542   -0.323937    0.428292   -0.044295
11
* Frequency(23) 1317.3016
C     1.626376    0.398368    0.011971   -0.114208    0.018471   -0.004664
C     1.500523   -0.952248    0.119694   -0.278149   -0.040367   -0.004278
N     0.120845   -1.660463    0.140353    0.376120    0.112109    0.000715
C    -0.912905   -0.810234    0.042164    0.039333   -0.232432    0.020787
N    -0.698041    0.511074   -0.061770   -0.200371   -0.006600   -0.004918
C     0.335371    1.248800   -0.094254    0.286829   -0.018384    0.009595
O    -2.041859   -1.395818    0.060578    0.001297    0.084252   -0.006999
O     0.403377    2.468254   -0.193718   -0.029417    0.031175   -0.003515
H     2.668085   -1.214615    0.173229   -1.121512   -1.197450    0.068628
H    -1.702239    0.812649   -0.114531    0.238350    0.720501   -0.054531
H     2.683401    0.725998    0.014334   -0.323937    0.428292   -0.044295
11
* Frequency(23) 1317.3016
C     1.629607    0.397846    0.012103   -0.114208    0.018471   -0.004664
C     1.508390   -0.951106    0.119815   -0.278149   -0.040367   -0.004278
N     0.110207   -1.663634    0.140333    0.376120    0.112109    0.000715
C    -0.914018   -0.803660    0.041576    0.039333   -0.232432    0.020787
N    -0.692374    0.511261   -0.061631   -0.200371   -0.006600   -0.004918
C     0.327258    1.249320   -0.094526    0.286829   -0.018384    0.009595
O    -2.041896   -1.398201    0.060776    0.001297    0.084252   -0.006999
O     0.404209    2.467373   -0.193619   -0.029417    0.031175   -0.003515
H     2.699806   -1.180747    0.171288   -1.121512   -1.197450    0.068628
H    -1.708981    0.792270   -0.112989    0.238350    0.720501   -0.054531
H     2.692563    0.713884    0.015587   -0.323937    0.428292   -0.044295
11
* Frequency(23) 1317.3016
C     1.628520    0.398022    0.012058   -0.114208    0.018471   -0.004664
C     1.505744   -0.951490    0.119774   -0.278149   -0.040367   -0.004278
N     0.113785   -1.662567    0.140340    0.376120    0.112109    0.000715
C    -0.913643   -0.805872    0.041774    0.039333   -0.232432    0.020787
N    -0.694280    0.511198   -0.061678   -0.200371   -0.006600   -0.004918
C     0.329988    1.249145   -0.094434    0.286829   -0.018384    0.009595
O    -2.041884   -1.397400    0.060710    0.001297    0.084252   -0.006999
O     0.403929    2.467669   -0.193652   -0.029417    0.031175   -0.003515
H     2.689135   -1.192140    0.171941   -1.121512   -1.197450    0.068628
H    -1.706713    0.799125   -0.113508    0.238350    0.720501   -0.054531
H     2.689481    0.717959    0.015165   -0.323937    0.428292   -0.044295
11
* Frequency(23) 1317.3016
C     1.623234    0.398877    0.011842   -0.114208    0.018471   -0.004664
C     1.492870   -0.953359    0.119576   -0.278149   -0.040367   -0.004278
N     0.131193   -1.657379    0.140373    0.376120    0.112109    0.000715
C    -0.911823   -0.816629    0.042736    0.039333   -0.232432    0.020787
N    -0.703554    0.510893   -0.061905   -0.200371   -0.006600   -0.004918
C     0.343262    1.248294   -0.093990    0.286829   -0.018384    0.009595
O    -2.041824   -1.393500    0.060386    0.001297    0.084252   -0.006999
O     0.402568    2.469112   -0.193815   -0.029417    0.031175   -0.003515
H     2.637230   -1.247560    0.175117   -1.121512   -1.197450    0.068628
H    -1.695682    0.832472   -0.116031    0.238350    0.720501   -0.054531
H     2.674489    0.737781    0.013115   -0.323937    0.428292   -0.044295
11
* Frequency(23) 1317.3016
C     1.614322    0.400318    0.011478   -0.114208    0.018471   -0.004664
C     1.471165   -0.956509    0.119243   -0.278149   -0.040367   -0.004278
N     0.160543   -1.648630    0.140429    0.376120    0.112109    0.000715
C    -0.908754   -0.834767    0.044358    0.039333   -0.232432    0.020787
N    -0.719190    0.510378   -0.062289   -0.200371   -0.006600   -0.004918
C     0.365645    1.246859   -0.093241    0.286829   -0.018384    0.009595
O    -2.041722   -1.386926    0.059840    0.001297    0.084252   -0.006999
O     0.400272    2.471545   -0.194089   -0.029417    0.031175   -0.003515
H     2.549714   -1.341001    0.180473   -1.121512   -1.197450    0.068628
H    -1.677082    0.888695   -0.120287    0.238350    0.720501   -0.054531
H     2.649211    0.771202    0.009659   -0.323937    0.428292   -0.044295
11
* Frequency(23) 1317.3016
C     1.602749    0.402190    0.011006   -0.114208    0.018471   -0.004664
C     1.442981   -0.960599    0.118809   -0.278149   -0.040367   -0.004278
N     0.198655   -1.637270    0.140501    0.376120    0.112109    0.000715
C    -0.904768   -0.858319    0.046464    0.039333   -0.232432    0.020787
N    -0.739493    0.509709   -0.062787   -0.200371   -0.006600   -0.004918
C     0.394709    1.244996   -0.092269    0.286829   -0.018384    0.009595
O    -2.041591   -1.378389    0.059130    0.001297    0.084252   -0.006999
O     0.397292    2.474704   -0.194445   -0.029417    0.031175   -0.003515
H     2.436071   -1.462339    0.187427   -1.121512   -1.197450    0.068628
H    -1.652930    0.961703   -0.125812    0.238350    0.720501   -0.054531
H     2.616386    0.814601    0.005170   -0.323937    0.428292   -0.044295
11
* Frequency(23) 1317.3016
C     1.589770    0.404289    0.010476   -0.114208    0.018471   -0.004664
C     1.411370   -0.965186    0.118323   -0.278149   -0.040367   -0.004278
N     0.241399   -1.624530    0.140582    0.376120    0.112109    0.000715
C    -0.900298   -0.884733    0.048827    0.039333   -0.232432    0.020787
N    -0.762264    0.508959   -0.063346   -0.200371   -0.006600   -0.004918
C     0.427306    1.242907   -0.091179    0.286829   -0.018384    0.009595
O    -2.041444   -1.368814    0.058335    0.001297    0.084252   -0.006999
O     0.393949    2.478247   -0.194845   -0.029417    0.031175   -0.003515
H     2.308617   -1.598423    0.195226   -1.121512   -1.197450    0.068628
H    -1.625843    1.043584   -0.132009    0.238350    0.720501   -0.054531
H     2.579572    0.863274    0.000136   -0.323937    0.428292   -0.044295
