11
* (null), Energy   -1000.0000000
C     1.356566    0.572472   -0.019574   -0.006790    0.024538    0.316902
C     1.179217   -0.796685    0.088575    0.000695    0.009893    0.156150
N     0.008210   -1.454494    0.110838    0.007519   -0.017038   -0.207205
C    -1.131376   -0.714764    0.018532   -0.012821    0.033697    0.416753
N    -0.995238    0.677642   -0.092617   -0.002398    0.000896   -0.000647
C     0.194158    1.409660   -0.120689    0.014191   -0.041902   -0.525396
O    -2.273001   -1.200862    0.028059   -0.000201   -0.009230   -0.106453
O     0.161758    2.645985   -0.224814   -0.005016    0.016324    0.163552
H     2.075560   -1.430341    0.165515    0.015938   -0.040281   -0.432515
H    -1.858608    1.212888   -0.161920    0.001521   -0.014166   -0.167381
H     2.345944    1.032379   -0.030255    0.050483   -0.146350   -1.760280
11
* Frequency(15)  800.6584
C     1.355795    0.575260    0.016441   -0.006790    0.024538    0.316902
C     1.179296   -0.795560    0.106321    0.000695    0.009893    0.156150
N     0.009065   -1.456430    0.087290    0.007519   -0.017038   -0.207205
C    -1.132833   -0.710935    0.065893   -0.012821    0.033697    0.416753
N    -0.995511    0.677744   -0.092690   -0.002398    0.000896   -0.000647
C     0.195770    1.404898   -0.180397    0.014191   -0.041902   -0.525396
O    -2.273024   -1.201911    0.015961   -0.000201   -0.009230   -0.106453
O     0.161188    2.647841   -0.206227   -0.005016    0.016324    0.163552
H     2.077371   -1.434918    0.116361    0.015938   -0.040281   -0.432515
H    -1.858435    1.211278   -0.180942    0.001521   -0.014166   -0.167381
H     2.351681    1.015747   -0.230301    0.050483   -0.146350   -1.760280
11
* Frequency(15)  800.6584
C     1.355107    0.577747    0.048552   -0.006790    0.024538    0.316902
C     1.179367   -0.794558    0.122143    0.000695    0.009893    0.156150
N     0.009826   -1.458157    0.066294    0.007519   -0.017038   -0.207205
C    -1.134132   -0.707520    0.108123   -0.012821    0.033697    0.416753
N    -0.995754    0.677835   -0.092756   -0.002398    0.000896   -0.000647
C     0.197208    1.400652   -0.233635    0.014191   -0.041902   -0.525396
O    -2.273044   -1.202847    0.005174   -0.000201   -0.009230   -0.106453
O     0.160680    2.649495   -0.189655   -0.005016    0.016324    0.163552
H     2.078986   -1.439000    0.072535    0.015938   -0.040281   -0.432515
H    -1.858281    1.209842   -0.197903    0.001521   -0.014166   -0.167381
H     2.356797    1.000918   -0.408670    0.050483   -0.146350   -1.760280
11
* Frequency(15)  800.6584
C     1.354577    0.579662    0.073281   -0.006790    0.024538    0.316902
C     1.179421   -0.793786    0.134328    0.000695    0.009893    0.156150
N     0.010413   -1.459486    0.050125    0.007519   -0.017038   -0.207205
C    -1.135133   -0.704891    0.140644   -0.012821    0.033697    0.416753
N    -0.995941    0.677905   -0.092806   -0.002398    0.000896   -0.000647
C     0.198316    1.397382   -0.274634    0.014191   -0.041902   -0.525396
O    -2.273060   -1.203567   -0.003133   -0.000201   -0.009230   -0.106453
O     0.160288    2.650768   -0.176892   -0.005016    0.016324    0.163552
H     2.080230   -1.442143    0.038784    0.015938   -0.040281   -0.432515
H    -1.858162    1.208737   -0.210964    0.001521   -0.014166   -0.167381
H     2.360736    0.989498   -0.546031    0.050483   -0.146350   -1.760280
11
* Frequency(15)  800.6584
C     1.354263    0.580797    0.087948   -0.006790    0.024538    0.316902
C     1.179453   -0.793328    0.141555    0.000695    0.009893    0.156150
N     0.010761   -1.460275    0.040535    0.007519   -0.017038   -0.207205
C    -1.135726   -0.703331    0.159932   -0.012821    0.033697    0.416753
N    -0.996052    0.677947   -0.092836   -0.002398    0.000896   -0.000647
C     0.198972    1.395443   -0.298950    0.014191   -0.041902   -0.525396
O    -2.273069   -1.203994   -0.008060   -0.000201   -0.009230   -0.106453
O     0.160056    2.651524   -0.169323   -0.005016    0.016324    0.163552
H     2.080967   -1.444008    0.018767    0.015938   -0.040281   -0.432515
H    -1.858092    1.208081   -0.218711    0.001521   -0.014166   -0.167381
H     2.363073    0.982724   -0.627500    0.050483   -0.146350   -1.760280
11
* Frequency(15)  800.6584
C     1.354198    0.581031    0.090963   -0.006790    0.024538    0.316902
C     1.179460   -0.793234    0.143041    0.000695    0.009893    0.156150
N     0.010833   -1.460437    0.038564    0.007519   -0.017038   -0.207205
C    -1.135848   -0.703010    0.163897   -0.012821    0.033697    0.416753
N    -0.996075    0.677955   -0.092843   -0.002398    0.000896   -0.000647
C     0.199107    1.395044   -0.303949    0.014191   -0.041902   -0.525396
O    -2.273071   -1.204082   -0.009073   -0.000201   -0.009230   -0.106453
O     0.160009    2.651679   -0.167766   -0.005016    0.016324    0.163552
H     2.081119   -1.444391    0.014651    0.015938   -0.040281   -0.432515
H    -1.858077    1.207946   -0.220303    0.001521   -0.014166   -0.167381
H     2.363553    0.981332   -0.644248    0.050483   -0.146350   -1.760280
11
* Frequency(15)  800.6584
C     1.354390    0.580337    0.082000   -0.006790    0.024538    0.316902
C     1.179440   -0.793514    0.138624    0.000695    0.009893    0.156150
N     0.010620   -1.459955    0.044424    0.007519   -0.017038   -0.207205
C    -1.135485   -0.703964    0.152110   -0.012821    0.033697    0.416753
N    -0.996007    0.677930   -0.092824   -0.002398    0.000896   -0.000647
C     0.198706    1.396229   -0.289089    0.014191   -0.041902   -0.525396
O    -2.273065   -1.203821   -0.006062   -0.000201   -0.009230   -0.106453
O     0.160150    2.651217   -0.172392   -0.005016    0.016324    0.163552
H     2.080668   -1.443251    0.026885    0.015938   -0.040281   -0.432515
H    -1.858120    1.208347   -0.215569    0.001521   -0.014166   -0.167381
H     2.362125    0.985471   -0.594461    0.050483   -0.146350   -1.760280
11
* Frequency(15)  800.6584
C     1.354818    0.578790    0.062030   -0.006790    0.024538    0.316902
C     1.179396   -0.794137    0.128784    0.000695    0.009893    0.156150
N     0.010146   -1.458881    0.057482    0.007519   -0.017038   -0.207205
C    -1.134677   -0.706087    0.125847   -0.012821    0.033697    0.416753
N    -0.995856    0.677873   -0.092784   -0.002398    0.000896   -0.000647
C     0.197812    1.398870   -0.255980    0.014191   -0.041902   -0.525396
O    -2.273053   -1.203239    0.000647   -0.000201   -0.009230   -0.106453
O     0.160467    2.650189   -0.182699   -0.005016    0.016324    0.163552
H     2.079664   -1.440713    0.054140    0.015938   -0.040281   -0.432515
H    -1.858216    1.209240   -0.205021    0.001521   -0.014166   -0.167381
H     2.358944    0.994694   -0.483533    0.050483   -0.146350   -1.760280
11
* Frequency(15)  800.6584
C     1.355435    0.576559    0.033216   -0.006790    0.024538    0.316902
C     1.179333   -0.795037    0.114587    0.000695    0.009893    0.156150
N     0.009463   -1.457332    0.076321    0.007519   -0.017038   -0.207205
C    -1.133512   -0.709151    0.087955   -0.012821    0.033697    0.416753
N    -0.995638    0.677792   -0.092725   -0.002398    0.000896   -0.000647
C     0.196522    1.402680   -0.208210    0.014191   -0.041902   -0.525396
O    -2.273034   -1.202400    0.010326   -0.000201   -0.009230   -0.106453
O     0.160923    2.648705   -0.197569   -0.005016    0.016324    0.163552
H     2.078215   -1.437051    0.093466    0.015938   -0.040281   -0.432515
H    -1.858355    1.210528   -0.189803    0.001521   -0.014166   -0.167381
H     2.354354    1.008000   -0.323485    0.050483   -0.146350   -1.760280
11
* Frequency(15)  800.6584
C     1.356175    0.573885   -0.001318   -0.006790    0.024538    0.316902
C     1.179257   -0.796115    0.097571    0.000695    0.009893    0.156150
N     0.008643   -1.455476    0.098901    0.007519   -0.017038   -0.207205
C    -1.132114   -0.712823    0.042540   -0.012821    0.033697    0.416753
N    -0.995376    0.677694   -0.092654   -0.002398    0.000896   -0.000647
C     0.194975    1.407246   -0.150956    0.014191   -0.041902   -0.525396
O    -2.273013   -1.201394    0.021926   -0.000201   -0.009230   -0.106453
O     0.161469    2.646926   -0.215392   -0.005016    0.016324    0.163552
H     2.076478   -1.432661    0.140598    0.015938   -0.040281   -0.432515
H    -1.858520    1.212072   -0.171563    0.001521   -0.014166   -0.167381
H     2.348853    1.023948   -0.131661    0.050483   -0.146350   -1.760280
11
* Frequency(15)  800.6584
C     1.356958    0.571058   -0.037830   -0.006790    0.024538    0.316902
C     1.179177   -0.797255    0.079580    0.000695    0.009893    0.156150
N     0.007777   -1.453513    0.122775    0.007519   -0.017038   -0.207205
C    -1.130637   -0.716705   -0.005477   -0.012821    0.033697    0.416753
N    -0.995100    0.677591   -0.092580   -0.002398    0.000896   -0.000647
C     0.193340    1.412073   -0.090422    0.014191   -0.041902   -0.525396
O    -2.272989   -1.200331    0.034191   -0.000201   -0.009230   -0.106453
O     0.162047    2.645045   -0.234236   -0.005016    0.016324    0.163552
H     2.074641   -1.428020    0.190431    0.015938   -0.040281   -0.432515
H    -1.858696    1.213704   -0.152278    0.001521   -0.014166   -0.167381
H     2.343036    1.040810    0.071152    0.050483   -0.146350   -1.760280
11
* Frequency(15)  800.6584
C     1.357698    0.568384   -0.072364   -0.006790    0.024538    0.316902
C     1.179101   -0.798333    0.062564    0.000695    0.009893    0.156150
N     0.006957   -1.451656    0.145355    0.007519   -0.017038   -0.207205
C    -1.129240   -0.720378   -0.050892   -0.012821    0.033697    0.416753
N    -0.994839    0.677493   -0.092509   -0.002398    0.000896   -0.000647
C     0.191794    1.416640   -0.033168    0.014191   -0.041902   -0.525396
O    -2.272968   -1.199325    0.045792   -0.000201   -0.009230   -0.106453
O     0.162594    2.643266   -0.252059   -0.005016    0.016324    0.163552
H     2.072904   -1.423631    0.237564    0.015938   -0.040281   -0.432515
H    -1.858862    1.215248   -0.134038    0.001521   -0.014166   -0.167381
H     2.337535    1.056758    0.262976    0.050483   -0.146350   -1.760280
11
* Frequency(15)  800.6584
C     1.358315    0.566153   -0.101177   -0.006790    0.024538    0.316902
C     1.179038   -0.799232    0.048366    0.000695    0.009893    0.156150
N     0.006274   -1.450107    0.164194    0.007519   -0.017038   -0.207205
C    -1.128074   -0.723441   -0.088784   -0.012821    0.033697    0.416753
N    -0.994621    0.677412   -0.092450   -0.002398    0.000896   -0.000647
C     0.190503    1.420449    0.014602    0.014191   -0.041902   -0.525396
O    -2.272949   -1.198486    0.055471   -0.000201   -0.009230   -0.106453
O     0.163050    2.641782   -0.266929   -0.005016    0.016324    0.163552
H     2.071455   -1.419968    0.276889    0.015938   -0.040281   -0.432515
H    -1.859000    1.216536   -0.118819    0.001521   -0.014166   -0.167381
H     2.332945    1.070065    0.423023    0.050483   -0.146350   -1.760280
11
* Frequency(15)  800.6584
C     1.358743    0.564607   -0.121147   -0.006790    0.024538    0.316902
C     1.178994   -0.799856    0.038526    0.000695    0.009893    0.156150
N     0.005800   -1.449033    0.177252    0.007519   -0.017038   -0.207205
C    -1.127266   -0.725565   -0.115046   -0.012821    0.033697    0.416753
N    -0.994470    0.677355   -0.092410   -0.002398    0.000896   -0.000647
C     0.189609    1.423090    0.047711    0.014191   -0.041902   -0.525396
O    -2.272937   -1.197904    0.062179   -0.000201   -0.009230   -0.106453
O     0.163366    2.640753   -0.277236   -0.005016    0.016324    0.163552
H     2.070451   -1.417430    0.304144    0.015938   -0.040281   -0.432515
H    -1.859096    1.217428   -0.108271    0.001521   -0.014166   -0.167381
H     2.329764    1.079287    0.533951    0.050483   -0.146350   -1.760280
11
* Frequency(15)  800.6584
C     1.358935    0.563913   -0.130111   -0.006790    0.024538    0.316902
C     1.178975   -0.800135    0.034110    0.000695    0.009893    0.156150
N     0.005587   -1.448551    0.183112    0.007519   -0.017038   -0.207205
C    -1.126904   -0.726518   -0.126834   -0.012821    0.033697    0.416753
N    -0.994402    0.677330   -0.092391   -0.002398    0.000896   -0.000647
C     0.189208    1.424275    0.062572    0.014191   -0.041902   -0.525396
O    -2.272931   -1.197643    0.065190   -0.000201   -0.009230   -0.106453
O     0.163508    2.640292   -0.281862   -0.005016    0.016324    0.163552
H     2.070000   -1.416291    0.316378    0.015938   -0.040281   -0.432515
H    -1.859139    1.217829   -0.103537    0.001521   -0.014166   -0.167381
H     2.328336    1.083427    0.583739    0.050483   -0.146350   -1.760280
11
* Frequency(15)  800.6584
C     1.358870    0.564146   -0.127095   -0.006790    0.024538    0.316902
C     1.178981   -0.800041    0.035595    0.000695    0.009893    0.156150
N     0.005659   -1.448713    0.181141    0.007519   -0.017038   -0.207205
C    -1.127026   -0.726197   -0.122869   -0.012821    0.033697    0.416753
N    -0.994425    0.677338   -0.092397   -0.002398    0.000896   -0.000647
C     0.189343    1.423876    0.057573    0.014191   -0.041902   -0.525396
O    -2.272933   -1.197731    0.064177   -0.000201   -0.009230   -0.106453
O     0.163460    2.640447   -0.280305   -0.005016    0.016324    0.163552
H     2.070152   -1.416674    0.312263    0.015938   -0.040281   -0.432515
H    -1.859124    1.217694   -0.105130    0.001521   -0.014166   -0.167381
H     2.328816    1.082034    0.566991    0.050483   -0.146350   -1.760280
11
* Frequency(15)  800.6584
C     1.358556    0.565282   -0.112429   -0.006790    0.024538    0.316902
C     1.179013   -0.799583    0.042822    0.000695    0.009893    0.156150
N     0.006007   -1.449502    0.171551    0.007519   -0.017038   -0.207205
C    -1.127619   -0.724638   -0.103580   -0.012821    0.033697    0.416753
N    -0.994536    0.677380   -0.092427   -0.002398    0.000896   -0.000647
C     0.190000    1.421937    0.033256    0.014191   -0.041902   -0.525396
O    -2.272942   -1.198158    0.059250   -0.000201   -0.009230   -0.106453
O     0.163228    2.641202   -0.272736   -0.005016    0.016324    0.163552
H     2.070889   -1.418538    0.292245    0.015938   -0.040281   -0.432515
H    -1.859054    1.217039   -0.112876    0.001521   -0.014166   -0.167381
H     2.331152    1.075261    0.485522    0.050483   -0.146350   -1.760280
11
* Frequency(15)  800.6584
C     1.358026    0.567197   -0.087700   -0.006790    0.024538    0.316902
C     1.179068   -0.798811    0.055007    0.000695    0.009893    0.156150
N     0.006594   -1.450832    0.155382    0.007519   -0.017038   -0.207205
C    -1.128619   -0.722008   -0.071060   -0.012821    0.033697    0.416753
N    -0.994723    0.677450   -0.092478   -0.002398    0.000896   -0.000647
C     0.191107    1.418667   -0.007742    0.014191   -0.041902   -0.525396
O    -2.272958   -1.198878    0.050943   -0.000201   -0.009230   -0.106453
O     0.162836    2.642476   -0.259973   -0.005016    0.016324    0.163552
H     2.072133   -1.421681    0.258494    0.015938   -0.040281   -0.432515
H    -1.858935    1.215933   -0.125938    0.001521   -0.014166   -0.167381
H     2.335092    1.063841    0.348161    0.050483   -0.146350   -1.760280
11
* Frequency(15)  800.6584
C     1.357338    0.569683   -0.055588   -0.006790    0.024538    0.316902
C     1.179138   -0.797809    0.070830    0.000695    0.009893    0.156150
N     0.007355   -1.452558    0.134386    0.007519   -0.017038   -0.207205
C    -1.129919   -0.718594   -0.028830   -0.012821    0.033697    0.416753
N    -0.994966    0.677541   -0.092543   -0.002398    0.000896   -0.000647
C     0.192545    1.414421   -0.060980    0.014191   -0.041902   -0.525396
O    -2.272978   -1.199813    0.040157   -0.000201   -0.009230   -0.106453
O     0.162328    2.644130   -0.243401   -0.005016    0.016324    0.163552
H     2.073748   -1.425763    0.214668    0.015938   -0.040281   -0.432515
H    -1.858781    1.214498   -0.142898    0.001521   -0.014166   -0.167381
H     2.340207    1.049011    0.169792    0.050483   -0.146350   -1.760280
11
* Frequency(15)  800.6584
C     1.356566    0.572472   -0.019574   -0.006790    0.024538    0.316902
C     1.179217   -0.796685    0.088575    0.000695    0.009893    0.156150
N     0.008210   -1.454494    0.110838    0.007519   -0.017038   -0.207205
C    -1.131376   -0.714764    0.018532   -0.012821    0.033697    0.416753
N    -0.995238    0.677642   -0.092617   -0.002398    0.000896   -0.000647
C     0.194158    1.409660   -0.120689    0.014191   -0.041902   -0.525396
O    -2.273001   -1.200862    0.028059   -0.000201   -0.009230   -0.106453
O     0.161758    2.645985   -0.224814   -0.005016    0.016324    0.163552
H     2.075560   -1.430341    0.165515    0.015938   -0.040281   -0.432515
H    -1.858608    1.212888   -0.161920    0.001521   -0.014166   -0.167381
H     2.345944    1.032379   -0.030255    0.050483   -0.146350   -1.760280
