11
* (null), Energy   -1000.0000000
C     1.589770    0.404289    0.010476    0.088389   -0.173244    0.016704
C     1.411370   -0.965186    0.118323   -0.050674   -0.032209    0.001321
N     0.241399   -1.624530    0.140582   -0.144099    0.074358   -0.010180
C    -0.900298   -0.884733    0.048827   -0.012430   -0.157232    0.012950
N    -0.762264    0.508959   -0.063346   -0.200529   -0.207088    0.011767
C     0.427306    1.242907   -0.091179    0.098855   -0.066314    0.008261
O    -2.041444   -1.368814    0.058335    0.144500    0.098063   -0.004311
O     0.393949    2.478247   -0.194845   -0.004511    0.165188   -0.013870
H     2.308617   -1.598423    0.195226    0.776418    1.120186   -0.071133
H    -1.625843    1.043584   -0.132009    0.577694    1.054069   -0.072826
H     2.579572    0.863274    0.000136   -0.266353    0.603626   -0.057043
11
* Frequency(25) 1390.0086
C     1.599815    0.384600    0.012374    0.088389   -0.173244    0.016704
C     1.405612   -0.968847    0.118473   -0.050674   -0.032209    0.001321
N     0.225023   -1.616079    0.139425   -0.144099    0.074358   -0.010180
C    -0.901711   -0.902602    0.050299   -0.012430   -0.157232    0.012950
N    -0.785053    0.485424   -0.062009   -0.200529   -0.207088    0.011767
C     0.438540    1.235371   -0.090240    0.098855   -0.066314    0.008261
O    -2.025022   -1.357669    0.057845    0.144500    0.098063   -0.004311
O     0.393436    2.497019   -0.196421   -0.004511    0.165188   -0.013870
H     2.396853   -1.471119    0.187142    0.776418    1.120186   -0.071133
H    -1.560191    1.163374   -0.140286    0.577694    1.054069   -0.072826
H     2.549303    0.931873   -0.006346   -0.266353    0.603626   -0.057043
11
* Frequency(25) 1390.0086
C     1.608772    0.367046    0.014067    0.088389   -0.173244    0.016704
C     1.400477   -0.972111    0.118607   -0.050674   -0.032209    0.001321
N     0.210421   -1.608545    0.138394   -0.144099    0.074358   -0.010180
C    -0.902970   -0.918534    0.051611   -0.012430   -0.157232    0.012950
N    -0.805373    0.464440   -0.060817   -0.200529   -0.207088    0.011767
C     0.448557    1.228651   -0.089403    0.098855   -0.066314    0.008261
O    -2.010380   -1.347733    0.057408    0.144500    0.098063   -0.004311
O     0.392979    2.513758   -0.197827   -0.004511    0.165188   -0.013870
H     2.475527   -1.357611    0.179934    0.776418    1.120186   -0.071133
H    -1.501654    1.270182   -0.147665    0.577694    1.054069   -0.072826
H     2.522313    0.993038   -0.012126   -0.266353    0.603626   -0.057043
11
* Frequency(25) 1390.0086
C     1.615669    0.353527    0.015370    0.088389   -0.173244    0.016704
C     1.396523   -0.974624    0.118710   -0.050674   -0.032209    0.001321
N     0.199177   -1.602742    0.137599   -0.144099    0.074358   -0.010180
C    -0.903940   -0.930804    0.052621   -0.012430   -0.157232    0.012950
N    -0.821021    0.448280   -0.059898   -0.200529   -0.207088    0.011767
C     0.456271    1.223476   -0.088758    0.098855   -0.066314    0.008261
O    -1.999104   -1.340080    0.057072    0.144500    0.098063   -0.004311
O     0.392627    2.526648   -0.198909   -0.004511    0.165188   -0.013870
H     2.536114   -1.270199    0.174383    0.776418    1.120186   -0.071133
H    -1.456574    1.352435   -0.153348    0.577694    1.054069   -0.072826
H     2.501529    1.040142   -0.016578   -0.266353    0.603626   -0.057043
11
* Frequency(25) 1390.0086
C     1.619760    0.345509    0.016143    0.088389   -0.173244    0.016704
C     1.394177   -0.976115    0.118771   -0.050674   -0.032209    0.001321
N     0.192508   -1.599301    0.137128   -0.144099    0.074358   -0.010180
C    -0.904515   -0.938081    0.053221   -0.012430   -0.157232    0.012950
N    -0.830302    0.438696   -0.059354   -0.200529   -0.207088    0.011767
C     0.460846    1.220407   -0.088376    0.098855   -0.066314    0.008261
O    -1.992416   -1.335542    0.056872    0.144500    0.098063   -0.004311
O     0.392418    2.534293   -0.199551   -0.004511    0.165188   -0.013870
H     2.572048   -1.218355    0.171091    0.776418    1.120186   -0.071133
H    -1.429837    1.401220   -0.156718    0.577694    1.054069   -0.072826
H     2.489201    1.068078   -0.019218   -0.266353    0.603626   -0.057043
11
* Frequency(25) 1390.0086
C     1.620601    0.343860    0.016302    0.088389   -0.173244    0.016704
C     1.393695   -0.976421    0.118784   -0.050674   -0.032209    0.001321
N     0.191137   -1.598593    0.137031   -0.144099    0.074358   -0.010180
C    -0.904634   -0.939577    0.053344   -0.012430   -0.157232    0.012950
N    -0.832210    0.436726   -0.059242   -0.200529   -0.207088    0.011767
C     0.461787    1.219776   -0.088297    0.098855   -0.066314    0.008261
O    -1.991041   -1.334609    0.056831    0.144500    0.098063   -0.004311
O     0.392375    2.535865   -0.199683   -0.004511    0.165188   -0.013870
H     2.579435   -1.207697    0.170414    0.776418    1.120186   -0.071133
H    -1.424341    1.411248   -0.157411    0.577694    1.054069   -0.072826
H     2.486667    1.073822   -0.019760   -0.266353    0.603626   -0.057043
11
* Frequency(25) 1390.0086
C     1.618101    0.348760    0.015830    0.088389   -0.173244    0.016704
C     1.395128   -0.975510    0.118746   -0.050674   -0.032209    0.001321
N     0.195212   -1.600696    0.137319   -0.144099    0.074358   -0.010180
C    -0.904282   -0.935130    0.052977   -0.012430   -0.157232    0.012950
N    -0.826538    0.442583   -0.059575   -0.200529   -0.207088    0.011767
C     0.458991    1.221652   -0.088531    0.098855   -0.066314    0.008261
O    -1.995128   -1.337382    0.056953    0.144500    0.098063   -0.004311
O     0.392503    2.531193   -0.199291   -0.004511    0.165188   -0.013870
H     2.557475   -1.239380    0.172426    0.776418    1.120186   -0.071133
H    -1.440680    1.381435   -0.155352    0.577694    1.054069   -0.072826
H     2.494201    1.056749   -0.018147   -0.266353    0.603626   -0.057043
11
* Frequency(25) 1390.0086
C     1.612531    0.359678    0.014777    0.088389   -0.173244    0.016704
C     1.398322   -0.973480    0.118663   -0.050674   -0.032209    0.001321
N     0.204293   -1.605382    0.137961   -0.144099    0.074358   -0.010180
C    -0.903499   -0.925221    0.052161   -0.012430   -0.157232    0.012950
N    -0.813901    0.455633   -0.060316   -0.200529   -0.207088    0.011767
C     0.452761    1.225831   -0.089052    0.098855   -0.066314    0.008261
O    -2.004234   -1.343562    0.057225    0.144500    0.098063   -0.004311
O     0.392787    2.520783   -0.198416   -0.004511    0.165188   -0.013870
H     2.508547   -1.309971    0.176909    0.776418    1.120186   -0.071133
H    -1.477085    1.315011   -0.150762    0.577694    1.054069   -0.072826
H     2.510986    1.018710   -0.014552   -0.266353    0.603626   -0.057043
11
* Frequency(25) 1390.0086
C     1.604494    0.375429    0.013258    0.088389   -0.173244    0.016704
C     1.402929   -0.970552    0.118543   -0.050674   -0.032209    0.001321
N     0.217395   -1.612143    0.138886   -0.144099    0.074358   -0.010180
C    -0.902369   -0.910925    0.050984   -0.012430   -0.157232    0.012950
N    -0.795669    0.474462   -0.061386   -0.200529   -0.207088    0.011767
C     0.443773    1.231860   -0.089803    0.098855   -0.066314    0.008261
O    -2.017373   -1.352478    0.057617    0.144500    0.098063   -0.004311
O     0.393197    2.505764   -0.197155   -0.004511    0.165188   -0.013870
H     2.437954   -1.411820    0.183376    0.776418    1.120186   -0.071133
H    -1.529610    1.219173   -0.144141    0.577694    1.054069   -0.072826
H     2.535203    0.963827   -0.009366   -0.266353    0.603626   -0.057043
11
* Frequency(25) 1390.0086
C     1.594862    0.394308    0.011438    0.088389   -0.173244    0.016704
C     1.408451   -0.967042    0.118399   -0.050674   -0.032209    0.001321
N     0.233098   -1.620246    0.139996   -0.144099    0.074358   -0.010180
C    -0.901014   -0.893791    0.049573   -0.012430   -0.157232    0.012950
N    -0.773816    0.497029   -0.062668   -0.200529   -0.207088    0.011767
C     0.433001    1.239087   -0.090703    0.098855   -0.066314    0.008261
O    -2.033119   -1.363165    0.058087    0.144500    0.098063   -0.004311
O     0.393689    2.487763   -0.195644   -0.004511    0.165188   -0.013870
H     2.353345   -1.533891    0.191128    0.776418    1.120186   -0.071133
H    -1.592563    1.104307   -0.136205    0.577694    1.054069   -0.072826
H     2.564228    0.898048   -0.003150   -0.266353    0.603626   -0.057043
11
* Frequency(25) 1390.0086
C     1.584678    0.414269    0.009514    0.088389   -0.173244    0.016704
C     1.414290   -0.963331    0.118247   -0.050674   -0.032209    0.001321
N     0.249700   -1.628813    0.141169   -0.144099    0.074358   -0.010180
C    -0.899582   -0.875676    0.048081   -0.012430   -0.157232    0.012950
N    -0.750712    0.520889   -0.064024   -0.200529   -0.207088    0.011767
C     0.421611    1.246727   -0.091655    0.098855   -0.066314    0.008261
O    -2.049768   -1.374463    0.058583    0.144500    0.098063   -0.004311
O     0.394208    2.468731   -0.194046   -0.004511    0.165188   -0.013870
H     2.263889   -1.662954    0.199324    0.776418    1.120186   -0.071133
H    -1.659123    0.982862   -0.127814    0.577694    1.054069   -0.072826
H     2.594917    0.828500    0.003422   -0.266353    0.603626   -0.057043
11
* Frequency(25) 1390.0086
C     1.575046    0.433148    0.007693    0.088389   -0.173244    0.016704
C     1.419812   -0.959821    0.118103   -0.050674   -0.032209    0.001321
N     0.265403   -1.636916    0.142278   -0.144099    0.074358   -0.010180
C    -0.898227   -0.858542    0.046670   -0.012430   -0.157232    0.012950
N    -0.728860    0.543456   -0.065306   -0.200529   -0.207088    0.011767
C     0.410838    1.253954   -0.092555    0.098855   -0.066314    0.008261
O    -2.065515   -1.385149    0.059053    0.144500    0.098063   -0.004311
O     0.394700    2.450730   -0.192534   -0.004511    0.165188   -0.013870
H     2.179280   -1.785025    0.207075    0.776418    1.120186   -0.071133
H    -1.722076    0.867996   -0.119878    0.577694    1.054069   -0.072826
H     2.623942    0.762721    0.009639   -0.266353    0.603626   -0.057043
11
* Frequency(25) 1390.0086
C     1.567010    0.448900    0.006174    0.088389   -0.173244    0.016704
C     1.424419   -0.956892    0.117983   -0.050674   -0.032209    0.001321
N     0.278505   -1.643677    0.143204   -0.144099    0.074358   -0.010180
C    -0.897097   -0.844246    0.045492   -0.012430   -0.157232    0.012950
N    -0.710627    0.562285   -0.066376   -0.200529   -0.207088    0.011767
C     0.401850    1.259983   -0.093306    0.098855   -0.066314    0.008261
O    -2.078653   -1.394065    0.059445    0.144500    0.098063   -0.004311
O     0.395110    2.435710   -0.191273   -0.004511    0.165188   -0.013870
H     2.108687   -1.886874    0.213543    0.776418    1.120186   -0.071133
H    -1.774601    0.772158   -0.113257    0.577694    1.054069   -0.072826
H     2.648159    0.707838    0.014825   -0.266353    0.603626   -0.057043
11
* Frequency(25) 1390.0086
C     1.561440    0.459817    0.005122    0.088389   -0.173244    0.016704
C     1.427612   -0.954863    0.117899   -0.050674   -0.032209    0.001321
N     0.287586   -1.648363    0.143845   -0.144099    0.074358   -0.010180
C    -0.896314   -0.834337    0.044676   -0.012430   -0.157232    0.012950
N    -0.697991    0.575335   -0.067118   -0.200529   -0.207088    0.011767
C     0.395621    1.264162   -0.093826    0.098855   -0.066314    0.008261
O    -2.087759   -1.400245    0.059717    0.144500    0.098063   -0.004311
O     0.395394    2.425301   -0.190399   -0.004511    0.165188   -0.013870
H     2.059759   -1.957465    0.218025    0.776418    1.120186   -0.071133
H    -1.811006    0.705734   -0.108667    0.577694    1.054069   -0.072826
H     2.664944    0.669800    0.018420   -0.266353    0.603626   -0.057043
11
* Frequency(25) 1390.0086
C     1.558940    0.464717    0.004649    0.088389   -0.173244    0.016704
C     1.429046   -0.953952    0.117862   -0.050674   -0.032209    0.001321
N     0.291661   -1.650466    0.144133   -0.144099    0.074358   -0.010180
C    -0.895962   -0.829890    0.044310   -0.012430   -0.157232    0.012950
N    -0.692319    0.581192   -0.067450   -0.200529   -0.207088    0.011767
C     0.392825    1.266038   -0.094060    0.098855   -0.066314    0.008261
O    -2.091846   -1.403019    0.059839    0.144500    0.098063   -0.004311
O     0.395522    2.420629   -0.190007   -0.004511    0.165188   -0.013870
H     2.037799   -1.989149    0.220037    0.776418    1.120186   -0.071133
H    -1.827345    0.675920   -0.106608    0.577694    1.054069   -0.072826
H     2.672478    0.652727    0.020033   -0.266353    0.603626   -0.057043
11
* Frequency(25) 1390.0086
C     1.559781    0.463069    0.004808    0.088389   -0.173244    0.016704
C     1.428563   -0.954258    0.117875   -0.050674   -0.032209    0.001321
N     0.290290   -1.649759    0.144036   -0.144099    0.074358   -0.010180
C    -0.896081   -0.831386    0.044433   -0.012430   -0.157232    0.012950
N    -0.694227    0.579222   -0.067339   -0.200529   -0.207088    0.011767
C     0.393765    1.265407   -0.093981    0.098855   -0.066314    0.008261
O    -2.090471   -1.402086    0.059798    0.144500    0.098063   -0.004311
O     0.395479    2.422200   -0.190139   -0.004511    0.165188   -0.013870
H     2.045187   -1.978491    0.219361    0.776418    1.120186   -0.071133
H    -1.821849    0.685949   -0.107300    0.577694    1.054069   -0.072826
H     2.669943    0.658470    0.019490   -0.266353    0.603626   -0.057043
11
* Frequency(25) 1390.0086
C     1.563871    0.455051    0.005581    0.088389   -0.173244    0.016704
C     1.426218   -0.955749    0.117936   -0.050674   -0.032209    0.001321
N     0.283621   -1.646317    0.143565   -0.144099    0.074358   -0.010180
C    -0.896656   -0.838663    0.045032   -0.012430   -0.157232    0.012950
N    -0.703508    0.569637   -0.066794   -0.200529   -0.207088    0.011767
C     0.398340    1.262338   -0.093599    0.098855   -0.066314    0.008261
O    -2.083783   -1.397547    0.059598    0.144500    0.098063   -0.004311
O     0.395270    2.429845   -0.190781   -0.004511    0.165188   -0.013870
H     2.081121   -1.926646    0.216068    0.776418    1.120186   -0.071133
H    -1.795112    0.734734   -0.110671    0.577694    1.054069   -0.072826
H     2.657616    0.686407    0.016850   -0.266353    0.603626   -0.057043
11
* Frequency(25) 1390.0086
C     1.570769    0.441532    0.006885    0.088389   -0.173244    0.016704
C     1.422264   -0.958262    0.118039   -0.050674   -0.032209    0.001321
N     0.272376   -1.640515    0.142771   -0.144099    0.074358   -0.010180
C    -0.897626   -0.850933    0.046043   -0.012430   -0.157232    0.012950
N    -0.719156    0.553477   -0.065876   -0.200529   -0.207088    0.011767
C     0.406054    1.257163   -0.092954    0.098855   -0.066314    0.008261
O    -2.072507   -1.389895    0.059262    0.144500    0.098063   -0.004311
O     0.394918    2.442736   -0.191863   -0.004511    0.165188   -0.013870
H     2.141707   -1.839234    0.210518    0.776418    1.120186   -0.071133
H    -1.750032    0.816987   -0.116354    0.577694    1.054069   -0.072826
H     2.636832    0.733510    0.012399   -0.266353    0.603626   -0.057043
11
* Frequency(25) 1390.0086
C     1.579725    0.423977    0.008577    0.088389   -0.173244    0.016704
C     1.417129   -0.961526    0.118173   -0.050674   -0.032209    0.001321
N     0.257775   -1.632980    0.141739   -0.144099    0.074358   -0.010180
C    -0.898885   -0.866865    0.047355   -0.012430   -0.157232    0.012950
N    -0.739475    0.532493   -0.064683   -0.200529   -0.207088    0.011767
C     0.416071    1.250443   -0.092117    0.098855   -0.066314    0.008261
O    -2.057865   -1.379958    0.058825    0.144500    0.098063   -0.004311
O     0.394461    2.459474   -0.193268   -0.004511    0.165188   -0.013870
H     2.220381   -1.725726    0.203310    0.776418    1.120186   -0.071133
H    -1.691495    0.923795   -0.123733    0.577694    1.054069   -0.072826
H     2.609842    0.794675    0.006619   -0.266353    0.603626   -0.057043
11
* Frequency(25) 1390.0086
C     1.589770    0.404289    0.010476    0.088389   -0.173244    0.016704
C     1.411370   -0.965186    0.118323   -0.050674   -0.032209    0.001321
N     0.241399   -1.624530    0.140582   -0.144099    0.074358   -0.010180
C    -0.900298   -0.884733    0.048827   -0.012430   -0.157232    0.012950
N    -0.762264    0.508959   -0.063346   -0.200529   -0.207088    0.011767
C     0.427306    1.242907   -0.091179    0.098855   -0.066314    0.008261
O    -2.041444   -1.368814    0.058335    0.144500    0.098063   -0.004311
O     0.393949    2.478247   -0.194845   -0.004511    0.165188   -0.013870
H     2.308617   -1.598423    0.195226    0.776418    1.120186   -0.071133
H    -1.625843    1.043584   -0.132009    0.577694    1.054069   -0.072826
H     2.579572    0.863274    0.000136   -0.266353    0.603626   -0.057043
