11
* (null), Energy   -1000.0000000
C     1.356566    0.572472   -0.019574    0.469748   -0.638778    0.065680
C     1.179217   -0.796685    0.088575   -0.548666    0.166059   -0.028917
N     0.008210   -1.454494    0.110838    0.620124   -0.060327    0.022101
C    -1.131376   -0.714764    0.018532   -0.136926    0.476957   -0.043437
N    -0.995238    0.677642   -0.092617    0.264513   -0.018779    0.009022
C     0.194158    1.409660   -0.120689   -0.614697   -0.274968    0.006120
O    -2.273001   -1.200862    0.028059   -0.162109   -0.113757    0.005011
O     0.161758    2.645985   -0.224814    0.042544    0.301629   -0.023960
H     2.075560   -1.430341    0.165515   -0.282631    0.570696   -0.053277
H    -1.858608    1.212888   -0.161920    0.104245   -0.289639    0.026077
H     2.345944    1.032379   -0.030255   -0.320169    1.062206   -0.097914
11
* Frequency(26) 1491.6397
C     1.409951    0.499878   -0.012109    0.469748   -0.638778    0.065680
C     1.116864   -0.777813    0.085289   -0.548666    0.166059   -0.028917
N     0.078684   -1.461350    0.113350    0.620124   -0.060327    0.022101
C    -1.146937   -0.660560    0.013595   -0.136926    0.476957   -0.043437
N    -0.965178    0.675508   -0.091592    0.264513   -0.018779    0.009022
C     0.124300    1.378411   -0.119993   -0.614697   -0.274968    0.006120
O    -2.291424   -1.213790    0.028628   -0.162109   -0.113757    0.005011
O     0.166593    2.680264   -0.227537    0.042544    0.301629   -0.023960
H     2.043440   -1.365484    0.159460   -0.282631    0.570696   -0.053277
H    -1.846761    1.179972   -0.158957    0.104245   -0.289639    0.026077
H     2.309559    1.153093   -0.041382   -0.320169    1.062206   -0.097914
11
* Frequency(26) 1491.6397
C     1.457550    0.435151   -0.005454    0.469748   -0.638778    0.065680
C     1.061268   -0.760986    0.082359   -0.548666    0.166059   -0.028917
N     0.141521   -1.467463    0.115589    0.620124   -0.060327    0.022101
C    -1.160811   -0.612231    0.009194   -0.136926    0.476957   -0.043437
N    -0.938375    0.673605   -0.090677    0.264513   -0.018779    0.009022
C     0.062013    1.350549   -0.119373   -0.614697   -0.274968    0.006120
O    -2.307850   -1.225317    0.029136   -0.162109   -0.113757    0.005011
O     0.170904    2.710828   -0.229965    0.042544    0.301629   -0.023960
H     2.014801   -1.307656    0.154061   -0.282631    0.570696   -0.053277
H    -1.836198    1.150623   -0.156314    0.104245   -0.289639    0.026077
H     2.277116    1.260726   -0.051304   -0.320169    1.062206   -0.097914
11
* Frequency(26) 1491.6397
C     1.494206    0.385305   -0.000329    0.469748   -0.638778    0.065680
C     1.018454   -0.748028    0.080102   -0.548666    0.166059   -0.028917
N     0.189911   -1.472171    0.117314    0.620124   -0.060327    0.022101
C    -1.171496   -0.575012    0.005804   -0.136926    0.476957   -0.043437
N    -0.917734    0.672140   -0.089973    0.264513   -0.018779    0.009022
C     0.014046    1.329092   -0.118896   -0.614697   -0.274968    0.006120
O    -2.320500   -1.234194    0.029527   -0.162109   -0.113757    0.005011
O     0.174224    2.734365   -0.231834    0.042544    0.301629   -0.023960
H     1.992746   -1.263122    0.149904   -0.282631    0.570696   -0.053277
H    -1.828063    1.128021   -0.154279    0.104245   -0.289639    0.026077
H     2.252132    1.343614   -0.058944   -0.320169    1.062206   -0.097914
11
* Frequency(26) 1491.6397
C     1.515947    0.355741    0.002711    0.469748   -0.638778    0.065680
C     0.993060   -0.740342    0.078764   -0.548666    0.166059   -0.028917
N     0.218612   -1.474963    0.118337    0.620124   -0.060327    0.022101
C    -1.177834   -0.552937    0.003794   -0.136926    0.476957   -0.043437
N    -0.905492    0.671271   -0.089556    0.264513   -0.018779    0.009022
C    -0.014403    1.316366   -0.118613   -0.614697   -0.274968    0.006120
O    -2.328003   -1.239459    0.029759   -0.162109   -0.113757    0.005011
O     0.176193    2.748325   -0.232943    0.042544    0.301629   -0.023960
H     1.979666   -1.236709    0.147438   -0.282631    0.570696   -0.053277
H    -1.823239    1.114616   -0.153072    0.104245   -0.289639    0.026077
H     2.237314    1.392775   -0.063476   -0.320169    1.062206   -0.097914
11
* Frequency(26) 1491.6397
C     1.520417    0.349663    0.003336    0.469748   -0.638778    0.065680
C     0.987840   -0.738762    0.078489   -0.548666    0.166059   -0.028917
N     0.224512   -1.475537    0.118547    0.620124   -0.060327    0.022101
C    -1.179136   -0.548399    0.003381   -0.136926    0.476957   -0.043437
N    -0.902975    0.671092   -0.089470    0.264513   -0.018779    0.009022
C    -0.020252    1.313750   -0.118554   -0.614697   -0.274968    0.006120
O    -2.329545   -1.240541    0.029807   -0.162109   -0.113757    0.005011
O     0.176598    2.751195   -0.233171    0.042544    0.301629   -0.023960
H     1.976977   -1.231279    0.146931   -0.282631    0.570696   -0.053277
H    -1.822247    1.111860   -0.152824    0.104245   -0.289639    0.026077
H     2.234268    1.402882   -0.064407   -0.320169    1.062206   -0.097914
11
* Frequency(26) 1491.6397
C     1.507130    0.367730    0.001478    0.469748   -0.638778    0.065680
C     1.003358   -0.743459    0.079307   -0.548666    0.166059   -0.028917
N     0.206972   -1.473830    0.117922    0.620124   -0.060327    0.022101
C    -1.175264   -0.561890    0.004609   -0.136926    0.476957   -0.043437
N    -0.910456    0.671623   -0.089725    0.264513   -0.018779    0.009022
C    -0.002866    1.321527   -0.118727   -0.614697   -0.274968    0.006120
O    -2.324960   -1.237324    0.029665   -0.162109   -0.113757    0.005011
O     0.175394    2.742664   -0.232494    0.042544    0.301629   -0.023960
H     1.984971   -1.247421    0.148438   -0.282631    0.570696   -0.053277
H    -1.825195    1.120052   -0.153562    0.104245   -0.289639    0.026077
H     2.243324    1.372838   -0.061638   -0.320169    1.062206   -0.097914
11
* Frequency(26) 1491.6397
C     1.477528    0.407984   -0.002661    0.469748   -0.638778    0.065680
C     1.037934   -0.753924    0.081129   -0.548666    0.166059   -0.028917
N     0.167894   -1.470029    0.116529    0.620124   -0.060327    0.022101
C    -1.166635   -0.591946    0.007346   -0.136926    0.476957   -0.043437
N    -0.927125    0.672807   -0.090294    0.264513   -0.018779    0.009022
C     0.035871    1.338854   -0.119113   -0.614697   -0.274968    0.006120
O    -2.314745   -1.230155    0.029349   -0.162109   -0.113757    0.005011
O     0.172713    2.723656   -0.230984    0.042544    0.301629   -0.023960
H     2.002781   -1.283384    0.151795   -0.282631    0.570696   -0.053277
H    -1.831765    1.138305   -0.155205    0.104245   -0.289639    0.026077
H     2.263500    1.305901   -0.055468   -0.320169    1.062206   -0.097914
11
* Frequency(26) 1491.6397
C     1.434818    0.466063   -0.008633    0.469748   -0.638778    0.065680
C     1.087820   -0.769022    0.083758   -0.548666    0.166059   -0.028917
N     0.111511   -1.464544    0.114520    0.620124   -0.060327    0.022101
C    -1.154185   -0.635312    0.011296   -0.136926    0.476957   -0.043437
N    -0.951175    0.674514   -0.091114    0.264513   -0.018779    0.009022
C     0.091760    1.363855   -0.119669   -0.614697   -0.274968    0.006120
O    -2.300005   -1.219812    0.028893   -0.162109   -0.113757    0.005011
O     0.168845    2.696231   -0.228805    0.042544    0.301629   -0.023960
H     2.028478   -1.335273    0.156640   -0.282631    0.570696   -0.053277
H    -1.841243    1.164639   -0.157576    0.104245   -0.289639    0.026077
H     2.292610    1.209323   -0.046565   -0.320169    1.062206   -0.097914
11
* Frequency(26) 1491.6397
C     1.383628    0.535673   -0.015790    0.469748   -0.638778    0.065680
C     1.147610   -0.787118    0.086909   -0.548666    0.166059   -0.028917
N     0.043934   -1.457970    0.112111    0.620124   -0.060327    0.022101
C    -1.139264   -0.687288    0.016029   -0.136926    0.476957   -0.043437
N    -0.980000    0.676561   -0.092097    0.264513   -0.018779    0.009022
C     0.158746    1.393819   -0.120336   -0.614697   -0.274968    0.006120
O    -2.282340   -1.207416    0.028347   -0.162109   -0.113757    0.005011
O     0.164209    2.663362   -0.226194    0.042544    0.301629   -0.023960
H     2.059278   -1.397464    0.162445   -0.282631    0.570696   -0.053277
H    -1.852603    1.196202   -0.160418    0.104245   -0.289639    0.026077
H     2.327500    1.093571   -0.035895   -0.320169    1.062206   -0.097914
11
* Frequency(26) 1491.6397
C     1.329505    0.609271   -0.023357    0.469748   -0.638778    0.065680
C     1.210825   -0.806251    0.090241   -0.548666    0.166059   -0.028917
N    -0.027514   -1.451019    0.109565    0.620124   -0.060327    0.022101
C    -1.123488   -0.742241    0.021034   -0.136926    0.476957   -0.043437
N    -1.010476    0.678724   -0.093137    0.264513   -0.018779    0.009022
C     0.229569    1.425500   -0.121041   -0.614697   -0.274968    0.006120
O    -2.263662   -1.194309    0.027770   -0.162109   -0.113757    0.005011
O     0.159307    2.628609   -0.223434    0.042544    0.301629   -0.023960
H     2.091841   -1.463217    0.168584   -0.282631    0.570696   -0.053277
H    -1.864613    1.229573   -0.163422    0.104245   -0.289639    0.026077
H     2.364389    0.971188   -0.024614   -0.320169    1.062206   -0.097914
11
* Frequency(26) 1491.6397
C     1.278315    0.678880   -0.030515    0.469748   -0.638778    0.065680
C     1.270615   -0.824347    0.093392   -0.548666    0.166059   -0.028917
N    -0.095091   -1.444445    0.107156    0.620124   -0.060327    0.022101
C    -1.108566   -0.794216    0.025768   -0.136926    0.476957   -0.043437
N    -1.039301    0.680771   -0.094120    0.264513   -0.018779    0.009022
C     0.296555    1.455464   -0.121708   -0.614697   -0.274968    0.006120
O    -2.245997   -1.181913    0.027224   -0.162109   -0.113757    0.005011
O     0.154671    2.595740   -0.220823    0.042544    0.301629   -0.023960
H     2.122641   -1.525408    0.174390   -0.282631    0.570696   -0.053277
H    -1.875973    1.261136   -0.166264    0.104245   -0.289639    0.026077
H     2.399279    0.855435   -0.013944   -0.320169    1.062206   -0.097914
11
* Frequency(26) 1491.6397
C     1.235605    0.736959   -0.036486    0.469748   -0.638778    0.065680
C     1.320500   -0.839446    0.096021   -0.548666    0.166059   -0.028917
N    -0.151474   -1.438960    0.105147    0.620124   -0.060327    0.022101
C    -1.096117   -0.837582    0.029717   -0.136926    0.476957   -0.043437
N    -1.063351    0.682478   -0.094940    0.264513   -0.018779    0.009022
C     0.352444    1.480465   -0.122265   -0.614697   -0.274968    0.006120
O    -2.231257   -1.171570    0.026769   -0.162109   -0.113757    0.005011
O     0.150803    2.568315   -0.218644    0.042544    0.301629   -0.023960
H     2.148338   -1.577297    0.179234   -0.282631    0.570696   -0.053277
H    -1.885452    1.287471   -0.168635    0.104245   -0.289639    0.026077
H     2.428389    0.758858   -0.005041   -0.320169    1.062206   -0.097914
11
* Frequency(26) 1491.6397
C     1.206003    0.777213   -0.040625    0.469748   -0.638778    0.065680
C     1.355076   -0.849910    0.097844   -0.548666    0.166059   -0.028917
N    -0.190552   -1.435158    0.103754    0.620124   -0.060327    0.022101
C    -1.087488   -0.867639    0.032454   -0.136926    0.476957   -0.043437
N    -1.080020    0.683662   -0.095509    0.264513   -0.018779    0.009022
C     0.391181    1.497792   -0.122650   -0.614697   -0.274968    0.006120
O    -2.221042   -1.164401    0.026453   -0.162109   -0.113757    0.005011
O     0.148122    2.549307   -0.217134    0.042544    0.301629   -0.023960
H     2.166148   -1.613261    0.182591   -0.282631    0.570696   -0.053277
H    -1.892021    1.305723   -0.170279    0.104245   -0.289639    0.026077
H     2.448565    0.691920    0.001129   -0.320169    1.062206   -0.097914
11
* Frequency(26) 1491.6397
C     1.192716    0.795280   -0.042483    0.469748   -0.638778    0.065680
C     1.370594   -0.854607    0.098662   -0.548666    0.166059   -0.028917
N    -0.208092   -1.433452    0.103129    0.620124   -0.060327    0.022101
C    -1.083615   -0.881129    0.033683   -0.136926    0.476957   -0.043437
N    -1.087502    0.684193   -0.095764    0.264513   -0.018779    0.009022
C     0.408567    1.505570   -0.122823   -0.614697   -0.274968    0.006120
O    -2.216457   -1.161183    0.026311   -0.162109   -0.113757    0.005011
O     0.146919    2.540776   -0.216457    0.042544    0.301629   -0.023960
H     2.174142   -1.629402    0.184098   -0.282631    0.570696   -0.053277
H    -1.894969    1.313915   -0.171016    0.104245   -0.289639    0.026077
H     2.457621    0.661877    0.003898   -0.320169    1.062206   -0.097914
11
* Frequency(26) 1491.6397
C     1.197186    0.789203   -0.041858    0.469748   -0.638778    0.065680
C     1.365374   -0.853027    0.098386   -0.548666    0.166059   -0.028917
N    -0.202192   -1.434026    0.103339    0.620124   -0.060327    0.022101
C    -1.084918   -0.876591    0.033269   -0.136926    0.476957   -0.043437
N    -1.084985    0.684014   -0.095678    0.264513   -0.018779    0.009022
C     0.402718    1.502953   -0.122765   -0.614697   -0.274968    0.006120
O    -2.217999   -1.162266    0.026359   -0.162109   -0.113757    0.005011
O     0.147324    2.543646   -0.216685    0.042544    0.301629   -0.023960
H     2.171453   -1.623972    0.183591   -0.282631    0.570696   -0.053277
H    -1.893977    1.311159   -0.170768    0.104245   -0.289639    0.026077
H     2.454574    0.671983    0.002967   -0.320169    1.062206   -0.097914
11
* Frequency(26) 1491.6397
C     1.218927    0.759639   -0.038818    0.469748   -0.638778    0.065680
C     1.339981   -0.845341    0.097048   -0.548666    0.166059   -0.028917
N    -0.173491   -1.436818    0.104362    0.620124   -0.060327    0.022101
C    -1.091255   -0.854516    0.031259   -0.136926    0.476957   -0.043437
N    -1.072743    0.683145   -0.095260    0.264513   -0.018779    0.009022
C     0.374269    1.490227   -0.122482   -0.614697   -0.274968    0.006120
O    -2.225502   -1.167531    0.026591   -0.162109   -0.113757    0.005011
O     0.149293    2.557606   -0.217793    0.042544    0.301629   -0.023960
H     2.158373   -1.597559    0.181125   -0.282631    0.570696   -0.053277
H    -1.889153    1.297754   -0.169561    0.104245   -0.289639    0.026077
H     2.439756    0.721144   -0.001565   -0.320169    1.062206   -0.097914
11
* Frequency(26) 1491.6397
C     1.255583    0.709793   -0.033693    0.469748   -0.638778    0.065680
C     1.297166   -0.832383    0.094792   -0.548666    0.166059   -0.028917
N    -0.125101   -1.441525    0.106087    0.620124   -0.060327    0.022101
C    -1.101940   -0.817298    0.027870   -0.136926    0.476957   -0.043437
N    -1.052102    0.681680   -0.094556    0.264513   -0.018779    0.009022
C     0.326302    1.468771   -0.122004   -0.614697   -0.274968    0.006120
O    -2.238152   -1.176408    0.026982   -0.162109   -0.113757    0.005011
O     0.152612    2.581143   -0.219663    0.042544    0.301629   -0.023960
H     2.136318   -1.553026    0.176968   -0.282631    0.570696   -0.053277
H    -1.881018    1.275153   -0.167526    0.104245   -0.289639    0.026077
H     2.414772    0.804032   -0.009206   -0.320169    1.062206   -0.097914
11
* Frequency(26) 1491.6397
C     1.303182    0.645066   -0.027038    0.469748   -0.638778    0.065680
C     1.241570   -0.815556    0.091861   -0.548666    0.166059   -0.028917
N    -0.062264   -1.447638    0.108326    0.620124   -0.060327    0.022101
C    -1.115815   -0.768968    0.023468   -0.136926    0.476957   -0.043437
N    -1.025299    0.679777   -0.093642    0.264513   -0.018779    0.009022
C     0.264015    1.440908   -0.121384   -0.614697   -0.274968    0.006120
O    -2.254578   -1.187935    0.027489   -0.162109   -0.113757    0.005011
O     0.156923    2.611707   -0.222091    0.042544    0.301629   -0.023960
H     2.107679   -1.495197    0.171569   -0.282631    0.570696   -0.053277
H    -1.870455    1.245804   -0.164884    0.104245   -0.289639    0.026077
H     2.382330    0.911665   -0.019127   -0.320169    1.062206   -0.097914
11
* Frequency(26) 1491.6397
C     1.356566    0.572472   -0.019574    0.469748   -0.638778    0.065680
C     1.179217   -0.796685    0.088575   -0.548666    0.166059   -0.028917
N     0.008210   -1.454494    0.110838    0.620124   -0.060327    0.022101
C    -1.131376   -0.714764    0.018532   -0.136926    0.476957   -0.043437
N    -0.995238    0.677642   -0.092617    0.264513   -0.018779    0.009022
C     0.194158    1.409660   -0.120689   -0.614697   -0.274968    0.006120
O    -2.273001   -1.200862    0.028059   -0.162109   -0.113757    0.005011
O     0.161758    2.645985   -0.224814    0.042544    0.301629   -0.023960
H     2.075560   -1.430341    0.165515   -0.282631    0.570696   -0.053277
H    -1.858608    1.212888   -0.161920    0.104245   -0.289639    0.026077
H     2.345944    1.032379   -0.030255   -0.320169    1.062206   -0.097914
