11
* (null), Energy   -1000.0000000
C     1.356566    0.572472   -0.019574   -0.416669   -0.009738   -0.022271
C     1.179217   -0.796685    0.088575    0.145405   -0.022869    0.037390
N     0.008210   -1.454494    0.110838    0.105018   -0.075755    0.006456
C    -1.131376   -0.714764    0.018532   -0.125683    0.027940   -0.012969
N    -0.995238    0.677642   -0.092617    0.349947    0.237249   -0.008198
C     0.194158    1.409660   -0.120689    0.060261   -0.082390    0.004214
O    -2.273001   -1.200862    0.028059   -0.146010   -0.117849    0.007269
O     0.161758    2.645985   -0.224814   -0.039555   -0.095538    0.007755
H     2.075560   -1.430341    0.165515    0.455766    0.389156   -0.197286
H    -1.858608    1.212888   -0.161920    0.921353    1.147792   -0.066085
H     2.345944    1.032379   -0.030255   -0.742101    0.643204   -0.026705
11
* Frequency(20) 1007.4985
C     1.309214    0.571365   -0.022105   -0.416669   -0.009738   -0.022271
C     1.195742   -0.799284    0.092824    0.145405   -0.022869    0.037390
N     0.020145   -1.463103    0.111572    0.105018   -0.075755    0.006456
C    -1.145659   -0.711589    0.017058   -0.125683    0.027940   -0.012969
N    -0.955469    0.704605   -0.093549    0.349947    0.237249   -0.008198
C     0.201006    1.400296   -0.120210    0.060261   -0.082390    0.004214
O    -2.289594   -1.214255    0.028885   -0.146010   -0.117849    0.007269
O     0.157263    2.635128   -0.223933   -0.039555   -0.095538    0.007755
H     2.127355   -1.386115    0.143094    0.455766    0.389156   -0.197286
H    -1.753901    1.343328   -0.169430    0.921353    1.147792   -0.066085
H     2.261608    1.105476   -0.033289   -0.742101    0.643204   -0.026705
11
* Frequency(20) 1007.4985
C     1.266993    0.570378   -0.024361   -0.416669   -0.009738   -0.022271
C     1.210475   -0.801601    0.096613    0.145405   -0.022869    0.037390
N     0.030786   -1.470780    0.112226    0.105018   -0.075755    0.006456
C    -1.158394   -0.708758    0.015744   -0.125683    0.027940   -0.012969
N    -0.920009    0.728645   -0.094379    0.349947    0.237249   -0.008198
C     0.207112    1.391948   -0.119783    0.060261   -0.082390    0.004214
O    -2.304389   -1.226197    0.029621   -0.146010   -0.117849    0.007269
O     0.153255    2.625447   -0.223147   -0.039555   -0.095538    0.007755
H     2.173538   -1.346682    0.123103    0.455766    0.389156   -0.197286
H    -1.660541    1.459634   -0.176127    0.921353    1.147792   -0.066085
H     2.186411    1.170652   -0.035995   -0.742101    0.643204   -0.026705
11
* Frequency(20) 1007.4985
C     1.234479    0.569618   -0.026099   -0.416669   -0.009738   -0.022271
C     1.221822   -0.803385    0.099531    0.145405   -0.022869    0.037390
N     0.038981   -1.476691    0.112730    0.105018   -0.075755    0.006456
C    -1.168202   -0.706578    0.014732   -0.125683    0.027940   -0.012969
N    -0.892701    0.747159   -0.095019    0.349947    0.237249   -0.008198
C     0.211815    1.385519   -0.119454    0.060261   -0.082390    0.004214
O    -2.315783   -1.235393    0.030189   -0.146010   -0.117849    0.007269
O     0.150168    2.617992   -0.222542   -0.039555   -0.095538    0.007755
H     2.209103   -1.316315    0.107708    0.455766    0.389156   -0.197286
H    -1.588644    1.549200   -0.181283    0.921353    1.147792   -0.066085
H     2.128502    1.220843   -0.038079   -0.742101    0.643204   -0.026705
11
* Frequency(20) 1007.4985
C     1.215195    0.569168   -0.027130   -0.416669   -0.009738   -0.022271
C     1.228551   -0.804444    0.101261    0.145405   -0.022869    0.037390
N     0.043842   -1.480197    0.113028    0.105018   -0.075755    0.006456
C    -1.174019   -0.705285    0.014131   -0.125683    0.027940   -0.012969
N    -0.876505    0.758139   -0.095398    0.349947    0.237249   -0.008198
C     0.214604    1.381705   -0.119259    0.060261   -0.082390    0.004214
O    -2.322541   -1.240848    0.030525   -0.146010   -0.117849    0.007269
O     0.148338    2.613570   -0.222183   -0.039555   -0.095538    0.007755
H     2.230197   -1.298304    0.098577    0.455766    0.389156   -0.197286
H    -1.546002    1.602322   -0.184342    0.921353    1.147792   -0.066085
H     2.094157    1.250612   -0.039315   -0.742101    0.643204   -0.026705
11
* Frequency(20) 1007.4985
C     1.211231    0.569075   -0.027342   -0.416669   -0.009738   -0.022271
C     1.229935   -0.804661    0.101617    0.145405   -0.022869    0.037390
N     0.044841   -1.480918    0.113090    0.105018   -0.075755    0.006456
C    -1.175215   -0.705019    0.014008   -0.125683    0.027940   -0.012969
N    -0.873175    0.760396   -0.095476    0.349947    0.237249   -0.008198
C     0.215177    1.380921   -0.119219    0.060261   -0.082390    0.004214
O    -2.323930   -1.241969    0.030594   -0.146010   -0.117849    0.007269
O     0.147961    2.612661   -0.222109   -0.039555   -0.095538    0.007755
H     2.234533   -1.294601    0.096700    0.455766    0.389156   -0.197286
H    -1.537236    1.613243   -0.184971    0.921353    1.147792   -0.066085
H     2.087096    1.256732   -0.039569   -0.742101    0.643204   -0.026705
11
* Frequency(20) 1007.4985
C     1.223016    0.569350   -0.026712   -0.416669   -0.009738   -0.022271
C     1.225822   -0.804015    0.100559    0.145405   -0.022869    0.037390
N     0.041870   -1.478775    0.112907    0.105018   -0.075755    0.006456
C    -1.171660   -0.705809    0.014375   -0.125683    0.027940   -0.012969
N    -0.883073    0.753686   -0.095244    0.349947    0.237249   -0.008198
C     0.213473    1.383252   -0.119338    0.060261   -0.082390    0.004214
O    -2.319800   -1.238636    0.030389   -0.146010   -0.117849    0.007269
O     0.149080    2.615363   -0.222328   -0.039555   -0.095538    0.007755
H     2.221642   -1.305608    0.102280    0.455766    0.389156   -0.197286
H    -1.563295    1.580779   -0.183102    0.921353    1.147792   -0.066085
H     2.108085    1.238539   -0.038814   -0.742101    0.643204   -0.026705
11
* Frequency(20) 1007.4985
C     1.249273    0.569964   -0.025309   -0.416669   -0.009738   -0.022271
C     1.216659   -0.802573    0.098203    0.145405   -0.022869    0.037390
N     0.035252   -1.474001    0.112500    0.105018   -0.075755    0.006456
C    -1.163740   -0.707570    0.015192   -0.125683    0.027940   -0.012969
N    -0.905126    0.738735   -0.094728    0.349947    0.237249   -0.008198
C     0.209675    1.388444   -0.119604    0.060261   -0.082390    0.004214
O    -2.310599   -1.231209    0.029931   -0.146010   -0.117849    0.007269
O     0.151573    2.621384   -0.222817   -0.039555   -0.095538    0.007755
H     2.192921   -1.330132    0.114713    0.455766    0.389156   -0.197286
H    -1.621357    1.508448   -0.178937    0.921353    1.147792   -0.066085
H     2.154851    1.198006   -0.037131   -0.742101    0.643204   -0.026705
11
* Frequency(20) 1007.4985
C     1.287157    0.570850   -0.023284   -0.416669   -0.009738   -0.022271
C     1.203439   -0.800494    0.094804    0.145405   -0.022869    0.037390
N     0.025704   -1.467114    0.111913    0.105018   -0.075755    0.006456
C    -1.152312   -0.710110    0.016371   -0.125683    0.027940   -0.012969
N    -0.936944    0.717164   -0.093982    0.349947    0.237249   -0.008198
C     0.204196    1.395935   -0.119987    0.060261   -0.082390    0.004214
O    -2.297324   -1.220494    0.029270   -0.146010   -0.117849    0.007269
O     0.155169    2.630071   -0.223522   -0.039555   -0.095538    0.007755
H     2.151482   -1.365514    0.132650    0.455766    0.389156   -0.197286
H    -1.705128    1.404089   -0.172929    0.921353    1.147792   -0.066085
H     2.222324    1.139525   -0.034703   -0.742101    0.643204   -0.026705
11
* Frequency(20) 1007.4985
C     1.332563    0.571911   -0.020857   -0.416669   -0.009738   -0.022271
C     1.187594   -0.798002    0.090729    0.145405   -0.022869    0.037390
N     0.014260   -1.458858    0.111210    0.105018   -0.075755    0.006456
C    -1.138616   -0.713155    0.017785   -0.125683    0.027940   -0.012969
N    -0.975079    0.691310   -0.093089    0.349947    0.237249   -0.008198
C     0.197629    1.404913   -0.120446    0.060261   -0.082390    0.004214
O    -2.281412   -1.207652    0.028478   -0.146010   -0.117849    0.007269
O     0.159479    2.640482   -0.224367   -0.039555   -0.095538    0.007755
H     2.101815   -1.407922    0.154149    0.455766    0.389156   -0.197286
H    -1.805531    1.279010   -0.165727    0.921353    1.147792   -0.066085
H     2.303193    1.069433   -0.031793   -0.742101    0.643204   -0.026705
11
* Frequency(20) 1007.4985
C     1.380570    0.573033   -0.018291   -0.416669   -0.009738   -0.022271
C     1.170841   -0.795367    0.086421    0.145405   -0.022869    0.037390
N     0.002160   -1.450130    0.110466    0.105018   -0.075755    0.006456
C    -1.124135   -0.716374    0.019279   -0.125683    0.027940   -0.012969
N    -1.015398    0.663975   -0.092145    0.349947    0.237249   -0.008198
C     0.190686    1.414406   -0.120932    0.060261   -0.082390    0.004214
O    -2.264590   -1.194073    0.027640   -0.146010   -0.117849    0.007269
O     0.164037    2.651489   -0.225261   -0.039555   -0.095538    0.007755
H     2.049304   -1.452759    0.176880    0.455766    0.389156   -0.197286
H    -1.911686    1.146766   -0.158113    0.921353    1.147792   -0.066085
H     2.388695    0.995326   -0.028716   -0.742101    0.643204   -0.026705
11
* Frequency(20) 1007.4985
C     1.425976    0.574094   -0.015864   -0.416669   -0.009738   -0.022271
C     1.154995   -0.792875    0.082347    0.145405   -0.022869    0.037390
N    -0.009284   -1.441875    0.109763    0.105018   -0.075755    0.006456
C    -1.110439   -0.719418    0.020692   -0.125683    0.027940   -0.012969
N    -1.053533    0.638121   -0.091251    0.349947    0.237249   -0.008198
C     0.184119    1.423384   -0.121391    0.060261   -0.082390    0.004214
O    -2.248678   -1.181231    0.026848   -0.146010   -0.117849    0.007269
O     0.168347    2.661900   -0.226106   -0.039555   -0.095538    0.007755
H     1.999637   -1.495167    0.198379    0.455766    0.389156   -0.197286
H    -2.012089    1.021687   -0.150912    0.921353    1.147792   -0.066085
H     2.469565    0.925233   -0.025806   -0.742101    0.643204   -0.026705
11
* Frequency(20) 1007.4985
C     1.463860    0.574979   -0.013839   -0.416669   -0.009738   -0.022271
C     1.141775   -0.790796    0.078947    0.145405   -0.022869    0.037390
N    -0.018832   -1.434987    0.109176    0.105018   -0.075755    0.006456
C    -1.099012   -0.721959    0.021871   -0.125683    0.027940   -0.012969
N    -1.085351    0.616550   -0.090506    0.349947    0.237249   -0.008198
C     0.178640    1.430875   -0.121774    0.060261   -0.082390    0.004214
O    -2.235403   -1.170516    0.026187   -0.146010   -0.117849    0.007269
O     0.171944    2.670587   -0.226811   -0.039555   -0.095538    0.007755
H     1.958198   -1.530550    0.216316    0.455766    0.389156   -0.197286
H    -2.095860    0.917327   -0.144903    0.921353    1.147792   -0.066085
H     2.537038    0.866752   -0.023378   -0.742101    0.643204   -0.026705
11
* Frequency(20) 1007.4985
C     1.490117    0.575593   -0.012435   -0.416669   -0.009738   -0.022271
C     1.132612   -0.789355    0.076591    0.145405   -0.022869    0.037390
N    -0.025450   -1.430213    0.108769    0.105018   -0.075755    0.006456
C    -1.091092   -0.723719    0.022689   -0.125683    0.027940   -0.012969
N    -1.107403    0.601599   -0.089989    0.349947    0.237249   -0.008198
C     0.174843    1.436067   -0.122040    0.060261   -0.082390    0.004214
O    -2.226202   -1.163089    0.025729   -0.146010   -0.117849    0.007269
O     0.174436    2.676607   -0.227299   -0.039555   -0.095538    0.007755
H     1.929477   -1.555073    0.228749    0.455766    0.389156   -0.197286
H    -2.153921    0.844997   -0.140739    0.921353    1.147792   -0.066085
H     2.583803    0.826219   -0.021695   -0.742101    0.643204   -0.026705
11
* Frequency(20) 1007.4985
C     1.501902    0.575869   -0.011805   -0.416669   -0.009738   -0.022271
C     1.128499   -0.788708    0.075534    0.145405   -0.022869    0.037390
N    -0.028421   -1.428070    0.108586    0.105018   -0.075755    0.006456
C    -1.087537   -0.724510    0.023055   -0.125683    0.027940   -0.012969
N    -1.117301    0.594889   -0.089758    0.349947    0.237249   -0.008198
C     0.173138    1.438398   -0.122159    0.060261   -0.082390    0.004214
O    -2.222072   -1.159756    0.025523   -0.146010   -0.117849    0.007269
O     0.175555    2.679310   -0.227519   -0.039555   -0.095538    0.007755
H     1.916586   -1.566080    0.234329    0.455766    0.389156   -0.197286
H    -2.179980    0.812533   -0.138870    0.921353    1.147792   -0.066085
H     2.604793    0.808027   -0.020940   -0.742101    0.643204   -0.026705
11
* Frequency(20) 1007.4985
C     1.497938    0.575776   -0.012017   -0.416669   -0.009738   -0.022271
C     1.129883   -0.788926    0.075889    0.145405   -0.022869    0.037390
N    -0.027422   -1.428791    0.108648    0.105018   -0.075755    0.006456
C    -1.088733   -0.724244    0.022932   -0.125683    0.027940   -0.012969
N    -1.113972    0.597146   -0.089836    0.349947    0.237249   -0.008198
C     0.173712    1.437614   -0.122119    0.060261   -0.082390    0.004214
O    -2.223461   -1.160877    0.025592   -0.146010   -0.117849    0.007269
O     0.175179    2.678401   -0.227445   -0.039555   -0.095538    0.007755
H     1.920922   -1.562378    0.232452    0.455766    0.389156   -0.197286
H    -2.171214    0.823453   -0.139498    0.921353    1.147792   -0.066085
H     2.597732    0.814147   -0.021194   -0.742101    0.643204   -0.026705
11
* Frequency(20) 1007.4985
C     1.478654    0.575325   -0.013048   -0.416669   -0.009738   -0.022271
C     1.136612   -0.789984    0.077620    0.145405   -0.022869    0.037390
N    -0.022561   -1.432297    0.108946    0.105018   -0.075755    0.006456
C    -1.094550   -0.722951    0.022332   -0.125683    0.027940   -0.012969
N    -1.097776    0.608126   -0.090215    0.349947    0.237249   -0.008198
C     0.176501    1.433801   -0.121924    0.060261   -0.082390    0.004214
O    -2.230219   -1.166332    0.025929   -0.146010   -0.117849    0.007269
O     0.173348    2.673979   -0.227086   -0.039555   -0.095538    0.007755
H     1.942016   -1.544367    0.223321    0.455766    0.389156   -0.197286
H    -2.128572    0.876575   -0.142557    0.921353    1.147792   -0.066085
H     2.563386    0.843915   -0.022430   -0.742101    0.643204   -0.026705
11
* Frequency(20) 1007.4985
C     1.446140    0.574565   -0.014786   -0.416669   -0.009738   -0.022271
C     1.147959   -0.791768    0.080537    0.145405   -0.022869    0.037390
N    -0.014366   -1.438209    0.109450    0.105018   -0.075755    0.006456
C    -1.104357   -0.720770    0.021320   -0.125683    0.027940   -0.012969
N    -1.070468    0.626640   -0.090855    0.349947    0.237249   -0.008198
C     0.181203    1.427371   -0.121595    0.060261   -0.082390    0.004214
O    -2.241613   -1.175528    0.026496   -0.146010   -0.117849    0.007269
O     0.170261    2.666524   -0.226481   -0.039555   -0.095538    0.007755
H     1.977581   -1.513999    0.207926    0.455766    0.389156   -0.197286
H    -2.056675    0.966142   -0.147714    0.921353    1.147792   -0.066085
H     2.505477    0.894107   -0.024514   -0.742101    0.643204   -0.026705
11
* Frequency(20) 1007.4985
C     1.403919    0.573578   -0.017043   -0.416669   -0.009738   -0.022271
C     1.162693   -0.794086    0.084326    0.145405   -0.022869    0.037390
N    -0.003725   -1.445885    0.110104    0.105018   -0.075755    0.006456
C    -1.117093   -0.717939    0.020006   -0.125683    0.027940   -0.012969
N    -1.035008    0.650680   -0.091685    0.349947    0.237249   -0.008198
C     0.187309    1.419023   -0.121168    0.060261   -0.082390    0.004214
O    -2.256408   -1.187469    0.027233   -0.146010   -0.117849    0.007269
O     0.166253    2.656843   -0.225695   -0.039555   -0.095538    0.007755
H     2.023764   -1.474566    0.187935    0.455766    0.389156   -0.197286
H    -1.963315    1.082447   -0.154410    0.921353    1.147792   -0.066085
H     2.430280    0.959282   -0.027220   -0.742101    0.643204   -0.026705
11
* Frequency(20) 1007.4985
C     1.356566    0.572472   -0.019574   -0.416669   -0.009738   -0.022271
C     1.179217   -0.796685    0.088575    0.145405   -0.022869    0.037390
N     0.008210   -1.454494    0.110838    0.105018   -0.075755    0.006456
C    -1.131376   -0.714764    0.018532   -0.125683    0.027940   -0.012969
N    -0.995238    0.677642   -0.092617    0.349947    0.237249   -0.008198
C     0.194158    1.409660   -0.120689    0.060261   -0.082390    0.004214
O    -2.273001   -1.200862    0.028059   -0.146010   -0.117849    0.007269
O     0.161758    2.645985   -0.224814   -0.039555   -0.095538    0.007755
H     2.075560   -1.430341    0.165515    0.455766    0.389156   -0.197286
H    -1.858608    1.212888   -0.161920    0.921353    1.147792   -0.066085
H     2.345944    1.032379   -0.030255   -0.742101    0.643204   -0.026705
