11
* (null), Energy   -1000.0000000
C     1.589770    0.404289    0.010476    0.135908    0.528138   -0.040412
C     1.411370   -0.965186    0.118323    0.030438    0.608313   -0.049045
N     0.241399   -1.624530    0.140582    0.169347   -0.130651    0.015061
C    -0.900298   -0.884733    0.048827   -0.223442   -0.625017    0.043704
N    -0.762264    0.508959   -0.063346    0.189764   -0.538094    0.050038
C     0.427306    1.242907   -0.091179    0.003446   -0.014680    0.002585
O    -2.041444   -1.368814    0.058335   -0.696303    0.184521   -0.033498
O     0.393949    2.478247   -0.194845    0.402392   -0.027108    0.012854
H     2.308617   -1.598423    0.195226    0.193690    0.849678   -0.063844
H    -1.625843    1.043584   -0.132009    0.084070   -0.711065    0.063875
H     2.579572    0.863274    0.000136    0.036345    0.736522   -0.062599
11
* Frequency(12)  612.4833
C     1.605215    0.464309    0.005883    0.135908    0.528138   -0.040412
C     1.414830   -0.896055    0.112749    0.030438    0.608313   -0.049045
N     0.260644   -1.639377    0.142294    0.169347   -0.130651    0.015061
C    -0.925691   -0.955763    0.053794   -0.223442   -0.625017    0.043704
N    -0.740699    0.447807   -0.057659    0.189764   -0.538094    0.050038
C     0.427697    1.241239   -0.090885    0.003446   -0.014680    0.002585
O    -2.120575   -1.347844    0.054528   -0.696303    0.184521   -0.033498
O     0.439678    2.475166   -0.193384    0.402392   -0.027108    0.012854
H     2.330629   -1.501861    0.187970    0.193690    0.849678   -0.063844
H    -1.616289    0.962776   -0.124750    0.084070   -0.711065    0.063875
H     2.583703    0.946976   -0.006978    0.036345    0.736522   -0.062599
11
* Frequency(12)  612.4833
C     1.618987    0.517825    0.001788    0.135908    0.528138   -0.040412
C     1.417914   -0.834415    0.107779    0.030438    0.608313   -0.049045
N     0.277804   -1.652616    0.143820    0.169347   -0.130651    0.015061
C    -0.948332   -1.019096    0.058222   -0.223442   -0.625017    0.043704
N    -0.721470    0.393282   -0.052589    0.189764   -0.538094    0.050038
C     0.428047    1.239751   -0.090623    0.003446   -0.014680    0.002585
O    -2.191131   -1.329146    0.051134   -0.696303    0.184521   -0.033498
O     0.480452    2.472419   -0.192082    0.402392   -0.027108    0.012854
H     2.350256   -1.415763    0.181501    0.193690    0.849678   -0.063844
H    -1.607770    0.890724   -0.118278    0.084070   -0.711065    0.063875
H     2.587386    1.021608   -0.013321    0.036345    0.736522   -0.062599
11
* Frequency(12)  612.4833
C     1.629592    0.559038   -0.001365    0.135908    0.528138   -0.040412
C     1.420289   -0.786946    0.103952    0.030438    0.608313   -0.049045
N     0.291019   -1.662811    0.144995    0.169347   -0.130651    0.015061
C    -0.965768   -1.067869    0.061633   -0.223442   -0.625017    0.043704
N    -0.706662    0.351293   -0.048684    0.189764   -0.538094    0.050038
C     0.428315    1.238606   -0.090421    0.003446   -0.014680    0.002585
O    -2.245466   -1.314748    0.048520   -0.696303    0.184521   -0.033498
O     0.511853    2.470304   -0.191079    0.402392   -0.027108    0.012854
H     2.365370   -1.349460    0.176519    0.193690    0.849678   -0.063844
H    -1.601210    0.835236   -0.113294    0.084070   -0.711065    0.063875
H     2.590222    1.079081   -0.018206    0.036345    0.736522   -0.062599
11
* Frequency(12)  612.4833
C     1.635882    0.583481   -0.003236    0.135908    0.528138   -0.040412
C     1.421698   -0.758792    0.101682    0.030438    0.608313   -0.049045
N     0.298857   -1.668858    0.145692    0.169347   -0.130651    0.015061
C    -0.976110   -1.096795    0.063655   -0.223442   -0.625017    0.043704
N    -0.697879    0.326389   -0.046369    0.189764   -0.538094    0.050038
C     0.428475    1.237926   -0.090302    0.003446   -0.014680    0.002585
O    -2.277692   -1.306208    0.046970   -0.696303    0.184521   -0.033498
O     0.530476    2.469049   -0.190484    0.402392   -0.027108    0.012854
H     2.374334   -1.310135    0.173564    0.193690    0.849678   -0.063844
H    -1.597319    0.802327   -0.110337    0.084070   -0.711065    0.063875
H     2.591904    1.113169   -0.021103    0.036345    0.736522   -0.062599
11
* Frequency(12)  612.4833
C     1.637175    0.588506   -0.003620    0.135908    0.528138   -0.040412
C     1.421987   -0.753004    0.101216    0.030438    0.608313   -0.049045
N     0.300468   -1.670101    0.145836    0.169347   -0.130651    0.015061
C    -0.978236   -1.102742    0.064071   -0.223442   -0.625017    0.043704
N    -0.696074    0.321269   -0.045892    0.189764   -0.538094    0.050038
C     0.428508    1.237787   -0.090277    0.003446   -0.014680    0.002585
O    -2.284317   -1.304452    0.046651   -0.696303    0.184521   -0.033498
O     0.534305    2.468791   -0.190361    0.402392   -0.027108    0.012854
H     2.376177   -1.302051    0.172957    0.193690    0.849678   -0.063844
H    -1.596519    0.795562   -0.109730    0.084070   -0.711065    0.063875
H     2.592250    1.120176   -0.021699    0.036345    0.736522   -0.062599
11
* Frequency(12)  612.4833
C     1.633331    0.573568   -0.002477    0.135908    0.528138   -0.040412
C     1.421127   -0.770209    0.102603    0.030438    0.608313   -0.049045
N     0.295678   -1.666406    0.145410    0.169347   -0.130651    0.015061
C    -0.971916   -1.085064    0.062835   -0.223442   -0.625017    0.043704
N    -0.701441    0.336489   -0.047308    0.189764   -0.538094    0.050038
C     0.428410    1.238202   -0.090350    0.003446   -0.014680    0.002585
O    -2.264623   -1.309671    0.047598   -0.696303    0.184521   -0.033498
O     0.522923    2.469558   -0.190725    0.402392   -0.027108    0.012854
H     2.370699   -1.326083    0.174762    0.193690    0.849678   -0.063844
H    -1.598897    0.815673   -0.111536    0.084070   -0.711065    0.063875
H     2.591222    1.099345   -0.019928    0.036345    0.736522   -0.062599
11
* Frequency(12)  612.4833
C     1.624767    0.540286    0.000070    0.135908    0.528138   -0.040412
C     1.419208   -0.808544    0.105694    0.030438    0.608313   -0.049045
N     0.285006   -1.658173    0.144460    0.169347   -0.130651    0.015061
C    -0.957835   -1.045677    0.060081   -0.223442   -0.625017    0.043704
N    -0.713399    0.370398   -0.050461    0.189764   -0.538094    0.050038
C     0.428193    1.239127   -0.090513    0.003446   -0.014680    0.002585
O    -2.220744   -1.321299    0.049709   -0.696303    0.184521   -0.033498
O     0.497566    2.471266   -0.191535    0.402392   -0.027108    0.012854
H     2.358493   -1.379628    0.178786    0.193690    0.849678   -0.063844
H    -1.604195    0.860483   -0.115562    0.084070   -0.711065    0.063875
H     2.588931    1.052931   -0.015983    0.036345    0.736522   -0.062599
11
* Frequency(12)  612.4833
C     1.612410    0.492267    0.003744    0.135908    0.528138   -0.040412
C     1.416441   -0.863853    0.110153    0.030438    0.608313   -0.049045
N     0.269609   -1.646294    0.143091    0.169347   -0.130651    0.015061
C    -0.937519   -0.988850    0.056107   -0.223442   -0.625017    0.043704
N    -0.730653    0.419322   -0.055011    0.189764   -0.538094    0.050038
C     0.427880    1.240462   -0.090748    0.003446   -0.014680    0.002585
O    -2.157435   -1.338076    0.052755   -0.696303    0.184521   -0.033498
O     0.460980    2.473731   -0.192704    0.402392   -0.027108    0.012854
H     2.340882   -1.456882    0.184591    0.193690    0.849678   -0.063844
H    -1.611838    0.925134   -0.121369    0.084070   -0.711065    0.063875
H     2.585627    0.985965   -0.010292    0.036345    0.736522   -0.062599
11
* Frequency(12)  612.4833
C     1.597600    0.434714    0.008148    0.135908    0.528138   -0.040412
C     1.413124   -0.930143    0.115497    0.030438    0.608313   -0.049045
N     0.251155   -1.632056    0.141450    0.169347   -0.130651    0.015061
C    -0.913170   -0.920740    0.051345   -0.223442   -0.625017    0.043704
N    -0.751332    0.477960   -0.060463    0.189764   -0.538094    0.050038
C     0.427504    1.242061   -0.091030    0.003446   -0.014680    0.002585
O    -2.081556   -1.358184    0.056405   -0.696303    0.184521   -0.033498
O     0.417130    2.476685   -0.194104    0.402392   -0.027108    0.012854
H     2.319775   -1.549474    0.191548    0.193690    0.849678   -0.063844
H    -1.621000    1.002621   -0.128330    0.084070   -0.711065    0.063875
H     2.581666    0.905704   -0.003470    0.036345    0.736522   -0.062599
11
* Frequency(12)  612.4833
C     1.581941    0.373864    0.012804    0.135908    0.528138   -0.040412
C     1.409617   -1.000230    0.121148    0.030438    0.608313   -0.049045
N     0.231643   -1.617003    0.139715    0.169347   -0.130651    0.015061
C    -0.887426   -0.848727    0.046309   -0.223442   -0.625017    0.043704
N    -0.773196    0.539957   -0.066229    0.189764   -0.538094    0.050038
C     0.427107    1.243753   -0.091328    0.003446   -0.014680    0.002585
O    -2.001331   -1.379444    0.060265   -0.696303    0.184521   -0.033498
O     0.370768    2.479808   -0.195585    0.402392   -0.027108    0.012854
H     2.297459   -1.647371    0.198904    0.193690    0.849678   -0.063844
H    -1.630686    1.084548   -0.135689    0.084070   -0.711065    0.063875
H     2.577479    0.820845    0.003743    0.036345    0.736522   -0.062599
11
* Frequency(12)  612.4833
C     1.567130    0.316311    0.017208    0.135908    0.528138   -0.040412
C     1.406300   -1.066520    0.126493    0.030438    0.608313   -0.049045
N     0.213189   -1.602766    0.138073    0.169347   -0.130651    0.015061
C    -0.863077   -0.780617    0.041546   -0.223442   -0.625017    0.043704
N    -0.793876    0.598595   -0.071682    0.189764   -0.538094    0.050038
C     0.426732    1.245352   -0.091609    0.003446   -0.014680    0.002585
O    -1.925452   -1.399552    0.063915   -0.696303    0.184521   -0.033498
O     0.326918    2.482762   -0.196986    0.402392   -0.027108    0.012854
H     2.276352   -1.739963    0.205861    0.193690    0.849678   -0.063844
H    -1.639848    1.162035   -0.142650    0.084070   -0.711065    0.063875
H     2.573518    0.740583    0.010564    0.036345    0.736522   -0.062599
11
* Frequency(12)  612.4833
C     1.554774    0.268291    0.020882    0.135908    0.528138   -0.040412
C     1.403532   -1.121829    0.130952    0.030438    0.608313   -0.049045
N     0.197791   -1.590887    0.136704    0.169347   -0.130651    0.015061
C    -0.842761   -0.723790    0.037573   -0.223442   -0.625017    0.043704
N    -0.811129    0.647520   -0.076231    0.189764   -0.538094    0.050038
C     0.426418    1.246687   -0.091844    0.003446   -0.014680    0.002585
O    -1.862143   -1.416329    0.066961   -0.696303    0.184521   -0.033498
O     0.290331    2.485227   -0.198155    0.402392   -0.027108    0.012854
H     2.258742   -1.817218    0.211666    0.193690    0.849678   -0.063844
H    -1.647491    1.226686   -0.148457    0.084070   -0.711065    0.063875
H     2.570214    0.673617    0.016256    0.036345    0.736522   -0.062599
11
* Frequency(12)  612.4833
C     1.546209    0.235010    0.023429    0.135908    0.528138   -0.040412
C     1.401614   -1.160163    0.134043    0.030438    0.608313   -0.049045
N     0.187120   -1.582653    0.135755    0.169347   -0.130651    0.015061
C    -0.828680   -0.684403    0.034819   -0.223442   -0.625017    0.043704
N    -0.823088    0.681429   -0.079384    0.189764   -0.538094    0.050038
C     0.426201    1.247612   -0.092007    0.003446   -0.014680    0.002585
O    -1.818264   -1.427957    0.069072   -0.696303    0.184521   -0.033498
O     0.264974    2.486935   -0.198965    0.402392   -0.027108    0.012854
H     2.246536   -1.870762    0.215689    0.193690    0.849678   -0.063844
H    -1.652789    1.271496   -0.152483    0.084070   -0.711065    0.063875
H     2.567923    0.627204    0.020201    0.036345    0.736522   -0.062599
11
* Frequency(12)  612.4833
C     1.542365    0.220072    0.024572    0.135908    0.528138   -0.040412
C     1.400753   -1.177369    0.135430    0.030438    0.608313   -0.049045
N     0.182330   -1.578958    0.135329    0.169347   -0.130651    0.015061
C    -0.822360   -0.666725    0.033583   -0.223442   -0.625017    0.043704
N    -0.828455    0.696648   -0.080800    0.189764   -0.538094    0.050038
C     0.426104    1.248027   -0.092080    0.003446   -0.014680    0.002585
O    -1.798570   -1.433176    0.070019   -0.696303    0.184521   -0.033498
O     0.253593    2.487702   -0.199328    0.402392   -0.027108    0.012854
H     2.241058   -1.894794    0.217495    0.193690    0.849678   -0.063844
H    -1.655167    1.291607   -0.154289    0.084070   -0.711065    0.063875
H     2.566895    0.606372    0.021971    0.036345    0.736522   -0.062599
11
* Frequency(12)  612.4833
C     1.543658    0.225097    0.024187    0.135908    0.528138   -0.040412
C     1.401043   -1.171581    0.134963    0.030438    0.608313   -0.049045
N     0.183941   -1.580201    0.135472    0.169347   -0.130651    0.015061
C    -0.824486   -0.672672    0.033998   -0.223442   -0.625017    0.043704
N    -0.826649    0.691529   -0.080324    0.189764   -0.538094    0.050038
C     0.426137    1.247888   -0.092056    0.003446   -0.014680    0.002585
O    -1.805195   -1.431420    0.069700   -0.696303    0.184521   -0.033498
O     0.257421    2.487444   -0.199206    0.402392   -0.027108    0.012854
H     2.242900   -1.886710    0.216887    0.193690    0.849678   -0.063844
H    -1.654367    1.284842   -0.153682    0.084070   -0.711065    0.063875
H     2.567241    0.613380    0.021376    0.036345    0.736522   -0.062599
11
* Frequency(12)  612.4833
C     1.549948    0.249540    0.022317    0.135908    0.528138   -0.040412
C     1.402452   -1.143427    0.132693    0.030438    0.608313   -0.049045
N     0.191779   -1.586248    0.136169    0.169347   -0.130651    0.015061
C    -0.834827   -0.701598    0.036021   -0.223442   -0.625017    0.043704
N    -0.817867    0.666625   -0.078008    0.189764   -0.538094    0.050038
C     0.426296    1.247208   -0.091936    0.003446   -0.014680    0.002585
O    -1.837421   -1.422880    0.068150   -0.696303    0.184521   -0.033498
O     0.276044    2.486190   -0.198611    0.402392   -0.027108    0.012854
H     2.251865   -1.847385    0.213933    0.193690    0.849678   -0.063844
H    -1.650476    1.251932   -0.150725    0.084070   -0.711065    0.063875
H     2.568923    0.647467    0.018478    0.036345    0.736522   -0.062599
11
* Frequency(12)  612.4833
C     1.560554    0.290753    0.019163    0.135908    0.528138   -0.040412
C     1.404827   -1.095958    0.128866    0.030438    0.608313   -0.049045
N     0.204994   -1.596443    0.137345    0.169347   -0.130651    0.015061
C    -0.852264   -0.750371    0.039431   -0.223442   -0.625017    0.043704
N    -0.803059    0.624635   -0.074103    0.189764   -0.538094    0.050038
C     0.426565    1.246063   -0.091734    0.003446   -0.014680    0.002585
O    -1.891756   -1.408481    0.065536   -0.696303    0.184521   -0.033498
O     0.307445    2.484074   -0.197608    0.402392   -0.027108    0.012854
H     2.266979   -1.781082    0.208951    0.193690    0.849678   -0.063844
H    -1.643916    1.196445   -0.145741    0.084070   -0.711065    0.063875
H     2.571759    0.704941    0.013594    0.036345    0.736522   -0.062599
11
* Frequency(12)  612.4833
C     1.574325    0.344269    0.015068    0.135908    0.528138   -0.040412
C     1.407911   -1.034318    0.123897    0.030438    0.608313   -0.049045
N     0.222154   -1.609682    0.138871    0.169347   -0.130651    0.015061
C    -0.874905   -0.813704    0.043860   -0.223442   -0.625017    0.043704
N    -0.783830    0.570110   -0.069033    0.189764   -0.538094    0.050038
C     0.426914    1.244575   -0.091472    0.003446   -0.014680    0.002585
O    -1.962312   -1.389784    0.062142   -0.696303    0.184521   -0.033498
O     0.348219    2.481327   -0.196305    0.402392   -0.027108    0.012854
H     2.286605   -1.694984    0.202481    0.193690    0.849678   -0.063844
H    -1.635397    1.124393   -0.139268    0.084070   -0.711065    0.063875
H     2.575442    0.779572    0.007250    0.036345    0.736522   -0.062599
11
* Frequency(12)  612.4833
C     1.589770    0.404289    0.010476    0.135908    0.528138   -0.040412
C     1.411370   -0.965186    0.118323    0.030438    0.608313   -0.049045
N     0.241399   -1.624530    0.140582    0.169347   -0.130651    0.015061
C    -0.900298   -0.884733    0.048827   -0.223442   -0.625017    0.043704
N    -0.762264    0.508959   -0.063346    0.189764   -0.538094    0.050038
C     0.427306    1.242907   -0.091179    0.003446   -0.014680    0.002585
O    -2.041444   -1.368814    0.058335   -0.696303    0.184521   -0.033498
O     0.393949    2.478247   -0.194845    0.402392   -0.027108    0.012854
H     2.308617   -1.598423    0.195226    0.193690    0.849678   -0.063844
H    -1.625843    1.043584   -0.132009    0.084070   -0.711065    0.063875
H     2.579572    0.863274    0.000136    0.036345    0.736522   -0.062599
