
                                 *****************
                                 * O   R   C   A *
                                 *****************

           --- An Ab Initio, DFT and Semiempirical electronic structure package ---

                  #######################################################
                  #                        -***-                        #
                  #          Department of theory and spectroscopy      #
                  #               Directorship: Frank Neese             #
                  #        Max Planck Institute fuer Kohlenforschung    #
                  #                Kaiser Wilhelm Platz 1               #
                  #                 D-45470 Muelheim/Ruhr               #
                  #                      Germany                        #
                  #                                                     #
                  #                  All rights reserved                #
                  #                        -***-                        #
                  #######################################################


                         Program Version 4.2.1 -  RELEASE  -


 With contributions from (in alphabetic order):
   Daniel Aravena         : Magnetic Suceptibility
   Michael Atanasov       : Ab Initio Ligand Field Theory (pilot matlab implementation)
   Alexander A. Auer      : GIAO ZORA, VPT2
   Ute Becker             : Parallelization
   Giovanni Bistoni       : ED, misc. LED, open-shell LED, HFLD
   Martin Brehm           : Molecular dynamics
   Dmytro Bykov           : SCF Hessian
   Vijay G. Chilkuri      : MRCI spin determinant printing, contributions to CSF-ICE
   Dipayan Datta          : RHF DLPNO-CCSD density
   Achintya Kumar Dutta   : EOM-CC, STEOM-CC
   Dmitry Ganyushin       : Spin-Orbit,Spin-Spin,Magnetic field MRCI
   Miquel Garcia          : C-PCM Hessian, Gaussian charge scheme
   Yang Guo               : DLPNO-NEVPT2, CIM, IAO-localization
   Andreas Hansen         : Spin unrestricted coupled pair/coupled cluster methods
   Benjamin Helmich-Paris : CASSCF linear response (MC-RPA)
   Lee Huntington         : MR-EOM, pCC
   Robert Izsak           : Overlap fitted RIJCOSX, COSX-SCS-MP3, EOM
   Christian Kollmar      : KDIIS, OOCD, Brueckner-CCSD(T), CCSD density
   Simone Kossmann        : Meta GGA functionals, TD-DFT gradient, OOMP2, MP2 Hessian
   Martin Krupicka        : AUTO-CI
   Lucas Lang             : DCDCAS
   Dagmar Lenk            : GEPOL surface, SMD
   Dimitrios Liakos       : Extrapolation schemes; Compound Job, initial MDCI parallelization
   Dimitrios Manganas     : Further ROCIS development; embedding schemes
   Dimitrios Pantazis     : SARC Basis sets
   Taras Petrenko         : DFT Hessian,TD-DFT gradient, ASA, ECA, R-Raman, ABS, FL, XAS/XES, NRVS
   Peter Pinski           : DLPNO-MP2, DLPNO-MP2 Gradient
   Christoph Reimann      : Effective Core Potentials
   Marius Retegan         : Local ZFS, SOC
   Christoph Riplinger    : Optimizer, TS searches, QM/MM, DLPNO-CCSD(T), (RO)-DLPNO pert. Triples
   Tobias Risthaus        : Range-separated hybrids, TD-DFT gradient, RPA, STAB
   Michael Roemelt        : Original ROCIS implementation
   Masaaki Saitow         : Open-shell DLPNO-CCSD energy and density
   Barbara Sandhoefer     : DKH picture change effects
   Avijit Sen             : IP-ROCIS
   Kantharuban Sivalingam : CASSCF convergence, NEVPT2, FIC-MRCI
   Bernardo de Souza      : ESD, SOC TD-DFT
   Georgi Stoychev        : AutoAux, RI-MP2 NMR
   Willem Van den Heuvel  : Paramagnetic NMR
   Boris Wezisla          : Elementary symmetry handling
   Frank Wennmohs         : Technical directorship


 We gratefully acknowledge several colleagues who have allowed us to
 interface, adapt or use parts of their codes:
   Stefan Grimme, W. Hujo, H. Kruse,             : VdW corrections, initial TS optimization,
                  C. Bannwarth                     DFT functionals, gCP, sTDA/sTD-DF
   Ed Valeev, F. Pavosevic, A. Kumar             : LibInt (2-el integral package), F12 methods
   Garnet Chan, S. Sharma, J. Yang, R. Olivares  : DMRG
   Ulf Ekstrom                                   : XCFun DFT Library
   Mihaly Kallay                                 : mrcc  (arbitrary order and MRCC methods)
   Andreas Klamt, Michael Diedenhofen            : otool_cosmo (COSMO solvation model)
   Jiri Pittner, Ondrej Demel                    : Mk-CCSD
   Frank Weinhold                                : gennbo (NPA and NBO analysis)
   Christopher J. Cramer and Donald G. Truhlar   : smd solvation model
   Lars Goerigk                                  : TD-DFT with DH, B97 family of functionals
   V. Asgeirsson, H. Jonsson                     : NEB implementation
   FAccTs GmbH                                   : IRC, NEB, NEB-TS, Multilevel, MM, QM/MM, CI optimization
   S Lehtola, MJT Oliveira, MAL Marques          : LibXC Library


 Your calculation uses the libint2 library for the computation of 2-el integrals
 For citations please refer to: http://libint.valeyev.net

 Your ORCA version has been built with support for libXC version: 4.2.3
 For citations please refer to: https://tddft.org/programs/libxc/

 This ORCA versions uses:
   CBLAS   interface :  Fast vector & matrix operations
   LAPACKE interface :  Fast linear algebra routines


----- Orbital basis set information -----
Your calculation utilizes the basis: def2-SVP
   F. Weigend and R. Ahlrichs, Phys. Chem. Chem. Phys. 7, 3297 (2005).

================================================================================
                                        WARNINGS
                       Please study these warnings very carefully!
================================================================================


WARNING: Geometry Optimization
  ===> : Switching off AutoStart
         For restart on a previous wavefunction, please use MOREAD

INFO   : the flag for use of LIBINT has been found!

================================================================================
                                       INPUT FILE
================================================================================
NAME = Uracil_m1.inp
|  1> !B3LYP def2-SVP OPT FREQ CPCM(WATER)

|  2> * xyz -1 1

|  3>    C        1.33878        0.51508       -0.01708

|  4>    C        1.24526       -0.81240        0.09268

|  5>    N       -0.02415       -1.41966        0.11620

|  6>    C       -1.17237       -0.61743        0.00888

|  7>    N       -1.05625        0.71979       -0.10636

|  8>    C        0.13881        1.36406       -0.11760

|  9>    O       -2.19305       -1.27075        0.03788

| 10>    O        0.23534        2.57757       -0.20466

| 11>    H        2.15069       -1.41636        0.16463

| 12>    H       -1.89431        1.28315       -0.17534

| 13>    H        2.29444        1.03083       -0.03758

| 14> *

| 15> 

| 16> 

| 17> 
| 18>                          ****END OF INPUT****
================================================================================

                       *****************************
                       * Geometry Optimization Run *
                       *****************************

Geometry optimization settings:
Update method            Update   .... BFGS
Choice of coordinates    CoordSys .... Z-matrix Internals
Initial Hessian          InHess   .... Almoef's Model

Convergence Tolerances:
Energy Change            TolE     ....  5.0000e-06 Eh
Max. Gradient            TolMAXG  ....  3.0000e-04 Eh/bohr
RMS Gradient             TolRMSG  ....  1.0000e-04 Eh/bohr
Max. Displacement        TolMAXD  ....  4.0000e-03 bohr
RMS Displacement         TolRMSD  ....  2.0000e-03 bohr
Strict Convergence                ....  False
------------------------------------------------------------------------------
                        ORCA OPTIMIZATION COORDINATE SETUP
------------------------------------------------------------------------------

The optimization will be done in new redundant internal coordinates
Making redundant internal coordinates   ...  (new redundants) done
Evaluating the initial hessian          ...  (Almloef) done
Evaluating the coordinates              ...  done
Calculating the B-matrix                .... done
Calculating the G-matrix                .... done
Diagonalizing the G-matrix              .... done
The first mode is                       ....   20
The number of degrees of freedom        ....   27

    -----------------------------------------------------------------
                    Redundant Internal Coordinates


    -----------------------------------------------------------------
         Definition                    Initial Value    Approx d2E/dq
    -----------------------------------------------------------------
      1. B(C   1,C   0)                  1.3353         0.763883   
      2. B(N   2,C   1)                  1.4074         0.524984   
      3. B(C   3,N   2)                  1.4048         0.529959   
      4. B(N   4,C   3)                  1.3472         0.654901   
      5. B(C   5,N   4)                  1.3577         0.630073   
      6. B(C   5,C   0)                  1.4734         0.459979   
      7. B(O   6,C   3)                  1.2122         1.075292   
      8. B(O   7,C   5)                  1.2205         1.043225   
      9. B(H   8,C   1)                  1.0908         0.359102   
     10. B(H   9,N   4)                  1.0122         0.429281   
     11. B(H  10,C   0)                  1.0861         0.365240   
     12. A(C   1,C   0,C   5)          121.4273         0.427120   
     13. A(C   1,C   0,H  10)          122.3604         0.366563   
     14. A(C   5,C   0,H  10)          116.2123         0.336458   
     15. A(N   2,C   1,H   8)          120.5772         0.340907   
     16. A(C   0,C   1,N   2)          119.5712         0.434522   
     17. A(C   0,C   1,H   8)          119.8515         0.365500   
     18. A(C   1,N   2,C   3)          119.3104         0.404463   
     19. A(N   2,C   3,N   4)          120.1931         0.420653   
     20. A(N   4,C   3,O   6)          127.5593         0.478255   
     21. A(N   2,C   3,O   6)          112.2474         0.460044   
     22. A(C   5,N   4,H   9)          117.6530         0.359167   
     23. A(C   3,N   4,H   9)          119.1391         0.361541   
     24. A(C   3,N   4,C   5)          123.2019         0.433900   
     25. A(C   0,C   5,N   4)          116.2877         0.410035   
     26. A(N   4,C   5,O   7)          122.8224         0.472229   
     27. A(C   0,C   5,O   7)          120.8900         0.448847   
     28. D(N   2,C   1,C   0,C   5)     -0.1322         0.041764   
     29. D(H   8,C   1,C   0,H  10)     -0.0495         0.041764   
     30. D(N   2,C   1,C   0,H  10)    179.8668         0.041764   
     31. D(H   8,C   1,C   0,C   5)    179.9514         0.041764   
     32. D(C   3,N   2,C   1,H   8)   -179.3957         0.019858   
     33. D(C   3,N   2,C   1,C   0)      0.6885         0.019858   
     34. D(N   4,C   3,N   2,C   1)     -0.4339         0.020250   
     35. D(O   6,C   3,N   2,C   1)    179.7146         0.020250   
     36. D(H   9,N   4,C   3,O   6)      0.3028         0.035048   
     37. D(H   9,N   4,C   3,N   2)   -179.5238         0.035048   
     38. D(C   5,N   4,C   3,O   6)    179.3964         0.035048   
     39. D(C   5,N   4,C   3,N   2)     -0.4302         0.035048   
     40. D(O   7,C   5,C   0,C   1)    179.2909         0.014413   
     41. D(N   4,C   5,C   0,H  10)    179.3277         0.014413   
     42. D(N   4,C   5,C   0,C   1)     -0.6732         0.014413   
     43. D(O   7,C   5,N   4,H   9)      0.0995         0.032229   
     44. D(O   7,C   5,N   4,C   3)   -179.0068         0.032229   
     45. D(C   0,C   5,N   4,H   9)   -179.9371         0.032229   
     46. D(C   0,C   5,N   4,C   3)      0.9566         0.032229   
     47. D(O   7,C   5,C   0,H  10)     -0.7082         0.014413   
    -----------------------------------------------------------------

Number of atoms                         .... 11
Number of degrees of freedom            .... 47

         *************************************************************
         *                GEOMETRY OPTIMIZATION CYCLE   1            *
         *************************************************************
---------------------------------
CARTESIAN COORDINATES (ANGSTROEM)
---------------------------------
  C      1.338780    0.515080   -0.017080
  C      1.245260   -0.812400    0.092680
  N     -0.024150   -1.419660    0.116200
  C     -1.172370   -0.617430    0.008880
  N     -1.056250    0.719790   -0.106360
  C      0.138810    1.364060   -0.117600
  O     -2.193050   -1.270750    0.037880
  O      0.235340    2.577570   -0.204660
  H      2.150690   -1.416360    0.164630
  H     -1.894310    1.283150   -0.175340
  H      2.294440    1.030830   -0.037580

----------------------------
CARTESIAN COORDINATES (A.U.)
----------------------------
  NO LB      ZA    FRAG     MASS         X           Y           Z
   0 C     6.0000    0    12.011    2.529928    0.973360   -0.032277
   1 C     6.0000    0    12.011    2.353200   -1.535214    0.175140
   2 N     7.0000    0    14.007   -0.045637   -2.682769    0.219586
   3 C     6.0000    0    12.011   -2.215458   -1.166774    0.016781
   4 N     7.0000    0    14.007   -1.996023    1.360206   -0.200991
   5 C     6.0000    0    12.011    0.262313    2.577700   -0.222232
   6 O     8.0000    0    15.999   -4.144264   -2.401369    0.071583
   7 O     8.0000    0    15.999    0.444728    4.870901   -0.386751
   8 H     1.0000    0     1.008    4.064215   -2.676533    0.311106
   9 H     1.0000    0     1.008   -3.579727    2.424802   -0.331345
  10 H     1.0000    0     1.008    4.335863    1.947986   -0.071016

--------------------------------
INTERNAL COORDINATES (ANGSTROEM)
--------------------------------
 C      0   0   0     0.000000000000     0.00000000     0.00000000
 C      1   0   0     1.335288882003     0.00000000     0.00000000
 N      2   1   0     1.407380419823   119.57115907     0.00000000
 C      3   2   1     1.404813056495   119.31044904     0.68851628
 N      4   3   2     1.347190202013   120.19312262   359.56613162
 C      5   4   3     1.357710784409   123.20192506   359.56982096
 O      4   3   2     1.212211072710   112.24738041   179.71462617
 O      6   5   4     1.220452377031   122.82236896   180.99322907
 H      2   1   3     1.090755687127   119.85153982   180.08361692
 H      5   4   3     1.012164657356   119.13913307   180.47615880
 H      1   2   3     1.086141955777   122.36044792   179.86684319

---------------------------
INTERNAL COORDINATES (A.U.)
---------------------------
 C      0   0   0     0.000000000000     0.00000000     0.00000000
 C      1   0   0     2.523330296655     0.00000000     0.00000000
 N      2   1   0     2.659563559708   119.57115907     0.00000000
 C      3   2   1     2.654711946133   119.31044904     0.68851628
 N      4   3   2     2.545820532107   120.19312262   359.56613162
 C      5   4   3     2.565701551604   123.20192506   359.56982096
 O      4   3   2     2.290746943928   112.24738041   179.71462617
 O      6   5   4     2.306320752081   122.82236896   180.99322907
 H      2   1   3     2.061229527687   119.85153982   180.08361692
 H      5   4   3     1.912714004837   119.13913307   180.47615880
 H      1   2   3     2.052510838981   122.36044792   179.86684319

---------------------
BASIS SET INFORMATION
---------------------
There are 4 groups of distinct atoms

 Group   1 Type C   : 7s4p1d contracted to 3s2p1d pattern {511/31/1}
 Group   2 Type N   : 7s4p1d contracted to 3s2p1d pattern {511/31/1}
 Group   3 Type O   : 7s4p1d contracted to 3s2p1d pattern {511/31/1}
 Group   4 Type H   : 4s1p contracted to 2s1p pattern {31/1}

Atom   0C    basis set group =>   1
Atom   1C    basis set group =>   1
Atom   2N    basis set group =>   2
Atom   3C    basis set group =>   1
Atom   4N    basis set group =>   2
Atom   5C    basis set group =>   1
Atom   6O    basis set group =>   3
Atom   7O    basis set group =>   3
Atom   8H    basis set group =>   4
Atom   9H    basis set group =>   4
Atom  10H    basis set group =>   4
------------------------------------------------------------------------------
                           ORCA GTO INTEGRAL CALCULATION
------------------------------------------------------------------------------

                         BASIS SET STATISTICS AND STARTUP INFO

 # of primitive gaussian shells          ...  111
 # of primitive gaussian functions       ...  213
 # of contracted shells                  ...   57
 # of contracted basis functions         ...  127
 Highest angular momentum                ...    2
 Maximum contraction depth               ...    5
 Integral package used                   ... LIBINT
 Integral threshhold            Thresh   ...  2.500e-11
 Primitive cut-off              TCut     ...  2.500e-12


------------------------------ INTEGRAL EVALUATION ----------------------------


 * One electron integrals 
 Pre-screening matrix                    ... done
 Shell pair data                         ... done (   0.001 sec)

Timings:
 Total evaluation time               ...     0.001 sec (   0.000 min)
 One electron matrix time            ...     0.008 sec (   0.000 min) =800.0%
 Schwartz matrix evaluation time     ...     0.088 sec (   0.001 min) =8800.0%

-------------------------------------------------------------------------------
                                 ORCA SCF
-------------------------------------------------------------------------------

------------
SCF SETTINGS
------------
Hamiltonian:
 Density Functional     Method          .... DFT(GTOs)
 Exchange Functional    Exchange        .... B88
   X-Alpha parameter    XAlpha          ....  0.666667
   Becke's b parameter  XBeta           ....  0.004200
 Correlation Functional Correlation     .... LYP
 LDA part of GGA corr.  LDAOpt          .... VWN-5
 Gradients option       PostSCFGGA      .... off
 Hybrid DFT is turned on
   Fraction HF Exchange ScalHFX         ....  0.200000
   Scaling of DF-GGA-X  ScalDFX         ....  0.720000
   Scaling of DF-GGA-C  ScalDFC         ....  0.810000
   Scaling of DF-LDA-C  ScalLDAC        ....  1.000000
   Perturbative correction              ....  0.000000
   Density functional embedding theory  .... OFF
   NL short-range parameter             ....  4.800000


General Settings:
 Integral files         IntName         .... Uracil_m1
 Hartree-Fock type      HFTyp           .... RHF
 Total Charge           Charge          ....   -1
 Multiplicity           Mult            ....    1
 Number of Electrons    NEL             ....   58
 Basis Dimension        Dim             ....  127
 Nuclear Repulsion      ENuc            ....    345.7566313242 Eh

Convergence Acceleration:
 DIIS                   CNVDIIS         .... on
   Start iteration      DIISMaxIt       ....    12
   Startup error        DIISStart       ....  0.200000
   # of expansion vecs  DIISMaxEq       ....     5
   Bias factor          DIISBfac        ....   1.050
   Max. coefficient     DIISMaxC        ....  10.000
 Newton-Raphson         CNVNR           .... off
 SOSCF                  CNVSOSCF        .... on
   Start iteration      SOSCFMaxIt      ....   150
   Startup grad/error   SOSCFStart      ....  0.003300
 Level Shifting         CNVShift        .... on
   Level shift para.    LevelShift      ....    0.2500
   Turn off err/grad.   ShiftErr        ....    0.0010
 Zerner damping         CNVZerner       .... off
 Static damping         CNVDamp         .... on
   Fraction old density DampFac         ....    0.7000
   Max. Damping (<1)    DampMax         ....    0.9800
   Min. Damping (>=0)   DampMin         ....    0.0000
   Turn off err/grad.   DampErr         ....    0.1000
 Fernandez-Rico         CNVRico         .... off

SCF Procedure:
 Maximum # iterations   MaxIter         ....   125
 SCF integral mode      SCFMode         .... Direct
   Integral package                     .... LIBINT
 Reset frequency        DirectResetFreq ....    20
 Integral Threshold     Thresh          ....  2.500e-11 Eh
 Primitive CutOff       TCut            ....  2.500e-12 Eh

Convergence Tolerance:
 Convergence Check Mode ConvCheckMode   .... Total+1el-Energy
 Convergence forced     ConvForced      .... 0
 Energy Change          TolE            ....  1.000e-08 Eh
 1-El. energy change                    ....  1.000e-05 Eh
 Orbital Gradient       TolG            ....  1.000e-05
 Orbital Rotation angle TolX            ....  1.000e-05
 DIIS Error             TolErr          ....  5.000e-07


Diagonalization of the overlap matrix:
Smallest eigenvalue                        ... 1.297e-03
Time for diagonalization                   ...    0.002 sec
Threshold for overlap eigenvalues          ... 1.000e-08
Number of eigenvalues below threshold      ... 0
Time for construction of square roots      ...    0.001 sec
Total time needed                          ...    0.003 sec

-------------------
DFT GRID GENERATION
-------------------

General Integration Accuracy     IntAcc      ...  4.340
Radial Grid Type                 RadialGrid  ... Gauss-Chebyshev
Angular Grid (max. acc.)         AngularGrid ... Lebedev-110
Angular grid pruning method      GridPruning ... 3 (G Style)
Weight generation scheme         WeightScheme... Becke
Basis function cutoff            BFCut       ...    1.0000e-11
Integration weight cutoff        WCut        ...    1.0000e-14
Grids for H and He will be reduced by one unit

# of grid points (after initial pruning)     ...  15842 (   0.0 sec)
# of grid points (after weights+screening)   ...  14964 (   0.0 sec)
nearest neighbour list constructed           ...    0.0 sec
Grid point re-assignment to atoms done       ...    0.0 sec
Grid point division into batches done        ...    0.0 sec
Reduced shell lists constructed in    0.0 sec

Total number of grid points                  ...    14964
Total number of batches                      ...      238
Average number of points per batch           ...       62
Average number of grid points per atom       ...     1360
Average number of shells per batch           ...    42.37 (74.33%)
Average number of basis functions per batch  ...    95.79 (75.43%)
Average number of large shells per batch     ...    34.49 (81.41%)
Average number of large basis fcns per batch ...    76.61 (79.98%)
Maximum spatial batch extension              ...  18.38, 20.99, 25.60 au
Average spatial batch extension              ...   3.63,  3.78,  4.99 au

Time for grid setup =    0.062 sec

------------------------------
INITIAL GUESS: MODEL POTENTIAL
------------------------------
Loading Hartree-Fock densities                     ... done
Calculating cut-offs                               ... done
Setting up the integral package                    ... done
Initializing the effective Hamiltonian             ... done
Starting the Coulomb interaction                   ... done (   0.0 sec)
Reading the grid                                   ... done
Mapping shells                                     ... done
Starting the XC term evaluation                    ... done (   0.1 sec)
  promolecular density results
     # of electrons  =     56.995926838
     EX              =    -50.989016409
     EC              =     -2.000245323
     EX+EC           =    -52.989261732
Transforming the Hamiltonian                       ... done (   0.0 sec)
Diagonalizing the Hamiltonian                      ... done (   0.0 sec)
Back transforming the eigenvectors                 ... done (   0.0 sec)
Now organizing SCF variables                       ... done
                      ------------------
                      INITIAL GUESS DONE (   0.2 sec)
                      ------------------

--------------------
CPCM SOLVATION MODEL
--------------------
CPCM parameters:
  Epsilon                                         ...      80.4000
  Refrac                                          ...       1.3300
  Rsolv                                           ...       1.3000
  Surface type                                    ...    GEPOL SES
  Epsilon function type                           ...         CPCM
Radii:
 Radius for C  used is    3.7795 Bohr (=   2.0000 Ang.)
 Radius for N  used is    3.4582 Bohr (=   1.8300 Ang.)
 Radius for O  used is    3.2503 Bohr (=   1.7200 Ang.)
 Radius for H  used is    2.4566 Bohr (=   1.3000 Ang.)
Calculating surface                               ...        done! (  0.0s)
GEPOL surface points                              ...          354
GEPOL Volume                                      ...     786.3776
GEPOL Surface-area                                ...     468.7388
Calculating surface distance matrix               ...        done! (  0.0s)
Performing Cholesky decomposition & store         ...        done! (  0.0s)
Overall time for CPCM initialization              ...                 0.0s
--------------
SCF ITERATIONS
--------------
ITER       Energy         Delta-E        Max-DP      RMS-DP      [F,P]     Damp
               ***  Starting incremental Fock matrix formation  ***
  0   -413.4851646767   0.000000000000 0.15494807  0.00466732  0.3013955 0.7000
  1   -413.6419483336  -0.156783656893 0.10690266  0.00304262  0.1293299 0.7000
                               ***Turning on DIIS***
  2   -413.6996011847  -0.057652851107 0.12370593  0.00427493  0.0471796 0.0000
  3   -413.7957533241  -0.096152139379 0.08175420  0.00211477  0.0640416 0.0000
  4   -413.8138334666  -0.018080142499 0.01436846  0.00051373  0.0162387 0.0000
  5   -413.8150469307  -0.001213464169 0.00413099  0.00017186  0.0042000 0.0000
                      *** Initiating the SOSCF procedure ***
                           *** Shutting down DIIS ***
                      *** Re-Reading the Fockian *** 
                      *** Removing any level shift *** 
ITER      Energy       Delta-E        Grad      Rot      Max-DP    RMS-DP
  6   -413.81510133  -0.0000543980  0.000363  0.000363  0.001474  0.000058
               *** Restarting incremental Fock matrix formation ***
  7   -413.81511054  -0.0000092125  0.000164  0.000557  0.000873  0.000040
  8   -413.81511075  -0.0000002038  0.000253  0.000550  0.000650  0.000018
  9   -413.81511186  -0.0000011172  0.000052  0.000199  0.000210  0.000011
 10   -413.81511188  -0.0000000171  0.000049  0.000094  0.000108  0.000003
 11   -413.81511194  -0.0000000633  0.000010  0.000028  0.000076  0.000002
 12   -413.81511194   0.0000000008  0.000016  0.000014  0.000039  0.000001
 13   -413.81511195  -0.0000000041  0.000003  0.000005  0.000014  0.000000
 14   -413.81511195   0.0000000005  0.000004  0.000003  0.000007  0.000000
                  ***Gradient check signals convergence***
              ***Rediagonalizing the Fockian in SOSCF/NRSCF***

               *****************************************************
               *                     SUCCESS                       *
               *           SCF CONVERGED AFTER  15 CYCLES          *
               *****************************************************

Setting up the final grid:

General Integration Accuracy     IntAcc      ...  4.670
Radial Grid Type                 RadialGrid  ... Gauss-Chebyshev
Angular Grid (max. acc.)         AngularGrid ... Lebedev-302
Angular grid pruning method      GridPruning ... 3 (G Style)
Weight generation scheme         WeightScheme... Becke
Basis function cutoff            BFCut       ...    1.0000e-11
Integration weight cutoff        WCut        ...    1.0000e-14
Grids for H and He will be reduced by one unit

# of grid points (after initial pruning)     ...  59878 (   0.0 sec)
# of grid points (after weights+screening)   ...  55902 (   0.0 sec)
nearest neighbour list constructed           ...    0.0 sec
Grid point re-assignment to atoms done       ...    0.0 sec
Grid point division into batches done        ...    0.1 sec
Reduced shell lists constructed in    0.3 sec

Total number of grid points                  ...    55902
Total number of batches                      ...      881
Average number of points per batch           ...       63
Average number of grid points per atom       ...     5082
Average number of shells per batch           ...    38.53 (67.60%)
Average number of basis functions per batch  ...    86.30 (67.95%)
Average number of large shells per batch     ...    30.68 (79.62%)
Average number of large basis fcns per batch ...    67.52 (78.24%)
Maximum spatial batch extension              ...  18.54, 17.76, 20.45 au
Average spatial batch extension              ...   2.52,  2.59,  2.97 au

Final grid set up in    0.3 sec
Final integration                            ... done (   0.3 sec)
Change in XC energy                          ...    -0.000503887
Integrated number of electrons               ...    57.999998611
Previous integrated no of electrons          ...    57.997753224

----------------
TOTAL SCF ENERGY
----------------

Total Energy       :         -413.81561583 Eh          -11260.49538 eV

Components:
Nuclear Repulsion  :          345.75663132 Eh            9408.51626 eV
Electronic Energy  :         -759.57224716 Eh          -20669.01164 eV
One Electron Energy:        -1260.77231866 Eh          -34307.35894 eV
Two Electron Energy:          501.20007150 Eh           13638.34731 eV
CPCM Dielectric    :           -0.10518815 Eh              -2.86232 eV

Virial components:
Potential Energy   :         -824.40993103 Eh          -22433.33471 eV
Kinetic Energy     :          410.59431520 Eh           11172.83933 eV
Virial Ratio       :            2.00784546


DFT components:
N(Alpha)           :       28.999999305395 electrons
N(Beta)            :       28.999999305395 electrons
N(Total)           :       57.999998610790 electrons
E(X)               :      -41.211768051265 Eh       
E(C)               :       -2.392112093240 Eh       
E(XC)              :      -43.603880144505 Eh       
DFET-embed. en.    :        0.000000000000 Eh       
CPCM Solvation Model Properties:
Surface-charge          :            0.98422883
Charge-correction       :           -0.00229627 Eh              -0.06248 eV
Free-energy (cav+disp)  :            0.00352000 Eh               0.09578 eV
Corrected G(solv)       :         -413.81439210 Eh          -11260.46208 eV

---------------
SCF CONVERGENCE
---------------

  Last Energy change         ...   -1.2034e-09  Tolerance :   1.0000e-08
  Last MAX-Density change    ...    2.0290e-06  Tolerance :   1.0000e-07
  Last RMS-Density change    ...    9.1771e-08  Tolerance :   5.0000e-09
  Last Orbital Gradient      ...    4.9324e-07  Tolerance :   1.0000e-05
  Last Orbital Rotation      ...    1.1620e-06  Tolerance :   1.0000e-05

             **** THE GBW FILE WAS UPDATED (Uracil_m1.gbw) ****
             **** DENSITY FILE WAS UPDATED (Uracil_m1.scfp) ****
             **** ENERGY FILE WAS UPDATED (Uracil_m1.en.tmp) ****
             **** THE GBW FILE WAS UPDATED (Uracil_m1.gbw) ****
             **** DENSITY FILE WAS UPDATED (Uracil_m1.scfp) ****
----------------
ORBITAL ENERGIES
----------------

  NO   OCC          E(Eh)            E(eV) 
   0   2.0000     -19.076536      -519.0989 
   1   2.0000     -19.061065      -518.6780 
   2   2.0000     -14.351145      -390.5145 
   3   2.0000     -14.260823      -388.0567 
   4   2.0000     -10.271222      -279.4942 
   5   2.0000     -10.265966      -279.3511 
   6   2.0000     -10.196346      -277.4567 
   7   2.0000     -10.143805      -276.0270 
   8   2.0000      -1.025297       -27.8998 
   9   2.0000      -0.998295       -27.1650 
  10   2.0000      -0.913636       -24.8613 
  11   2.0000      -0.832799       -22.6616 
  12   2.0000      -0.714737       -19.4490 
  13   2.0000      -0.623642       -16.9702 
  14   2.0000      -0.614303       -16.7160 
  15   2.0000      -0.519312       -14.1312 
  16   2.0000      -0.487836       -13.2747 
  17   2.0000      -0.445785       -12.1304 
  18   2.0000      -0.442264       -12.0346 
  19   2.0000      -0.413349       -11.2478 
  20   2.0000      -0.394732       -10.7412 
  21   2.0000      -0.369449       -10.0532 
  22   2.0000      -0.368426       -10.0254 
  23   2.0000      -0.299540        -8.1509 
  24   2.0000      -0.263245        -7.1633 
  25   2.0000      -0.248328        -6.7574 
  26   2.0000      -0.238164        -6.4808 
  27   2.0000      -0.226238        -6.1563 
  28   2.0000      -0.178571        -4.8592 
  29   0.0000       0.011158         0.3036 
  30   0.0000       0.055836         1.5194 
  31   0.0000       0.099116         2.6971 
  32   0.0000       0.108292         2.9468 
  33   0.0000       0.155909         4.2425 
  34   0.0000       0.171040         4.6542 
  35   0.0000       0.204426         5.5627 
  36   0.0000       0.236458         6.4344 
  37   0.0000       0.256084         6.9684 
  38   0.0000       0.306756         8.3473 
  39   0.0000       0.325955         8.8697 
  40   0.0000       0.359981         9.7956 
  41   0.0000       0.396811        10.7978 
  42   0.0000       0.437002        11.8914 
  43   0.0000       0.453497        12.3403 
  44   0.0000       0.455508        12.3950 
  45   0.0000       0.477634        12.9971 
  46   0.0000       0.542352        14.7581 
  47   0.0000       0.546372        14.8675 
  48   0.0000       0.561977        15.2922 
  49   0.0000       0.565642        15.3919 
  50   0.0000       0.603929        16.4337 
  51   0.0000       0.628744        17.1090 
  52   0.0000       0.640785        17.4367 
  53   0.0000       0.653569        17.7845 
  54   0.0000       0.686544        18.6818 
  55   0.0000       0.709835        19.3156 
  56   0.0000       0.734125        19.9766 
  57   0.0000       0.751109        20.4387 
  58   0.0000       0.775802        21.1106 
  59   0.0000       0.792745        21.5717 
  60   0.0000       0.827772        22.5248 
  61   0.0000       0.831018        22.6132 
  62   0.0000       0.879110        23.9218 
  63   0.0000       0.934370        25.4255 
  64   0.0000       0.938696        25.5432 
  65   0.0000       0.998071        27.1589 
  66   0.0000       1.049500        28.5583 
  67   0.0000       1.057168        28.7670 
  68   0.0000       1.092921        29.7399 
  69   0.0000       1.114999        30.3407 
  70   0.0000       1.141456        31.0606 
  71   0.0000       1.163910        31.6716 
  72   0.0000       1.238531        33.7021 
  73   0.0000       1.256161        34.1819 
  74   0.0000       1.309694        35.6386 
  75   0.0000       1.311896        35.6985 
  76   0.0000       1.335038        36.3282 
  77   0.0000       1.352898        36.8142 
  78   0.0000       1.417001        38.5586 
  79   0.0000       1.442058        39.2404 
  80   0.0000       1.538947        41.8769 
  81   0.0000       1.544044        42.0156 
  82   0.0000       1.549944        42.1761 
  83   0.0000       1.607472        43.7415 
  84   0.0000       1.709357        46.5140 
  85   0.0000       1.759095        47.8674 
  86   0.0000       1.794509        48.8311 
  87   0.0000       1.819133        49.5011 
  88   0.0000       1.845225        50.2111 
  89   0.0000       1.885248        51.3002 
  90   0.0000       1.885369        51.3035 
  91   0.0000       1.964300        53.4513 
  92   0.0000       1.991510        54.1917 
  93   0.0000       1.993192        54.2375 
  94   0.0000       2.049423        55.7676 
  95   0.0000       2.081805        56.6488 
  96   0.0000       2.134754        58.0896 
  97   0.0000       2.213469        60.2316 
  98   0.0000       2.240018        60.9540 
  99   0.0000       2.245939        61.1151 
 100   0.0000       2.283646        62.1412 
 101   0.0000       2.413184        65.6661 
 102   0.0000       2.490522        67.7706 
 103   0.0000       2.517694        68.5099 
 104   0.0000       2.536413        69.0193 
 105   0.0000       2.571141        69.9643 
 106   0.0000       2.573061        70.0166 
 107   0.0000       2.627536        71.4989 
 108   0.0000       2.651211        72.1431 
 109   0.0000       2.716164        73.9106 
 110   0.0000       2.743663        74.6589 
 111   0.0000       2.750685        74.8499 
 112   0.0000       2.782150        75.7062 
 113   0.0000       2.814909        76.5976 
 114   0.0000       2.910725        79.2049 
 115   0.0000       2.914760        79.3147 
 116   0.0000       2.986285        81.2610 
 117   0.0000       3.074181        83.6527 
 118   0.0000       3.124727        85.0281 
 119   0.0000       3.174912        86.3937 
 120   0.0000       3.230980        87.9194 
 121   0.0000       3.240128        88.1684 
 122   0.0000       3.447826        93.8201 
 123   0.0000       3.508763        95.4783 
 124   0.0000       3.611862        98.2838 
 125   0.0000       3.708021       100.9004 
 126   0.0000       3.817474       103.8788 

                    ********************************
                    * MULLIKEN POPULATION ANALYSIS *
                    ********************************

-----------------------
MULLIKEN ATOMIC CHARGES
-----------------------
   0 C :   -0.186991
   1 C :    0.098025
   2 N :   -0.392796
   3 C :    0.011248
   4 N :   -0.010225
   5 C :    0.087422
   6 O :   -0.342069
   7 O :   -0.347048
   8 H :   -0.008231
   9 H :    0.133224
  10 H :   -0.042560
Sum of atomic charges:   -1.0000000

--------------------------------
MULLIKEN REDUCED ORBITAL CHARGES
--------------------------------
  0 C s       :     3.225513  s :     3.225513
      pz      :     1.195667  p :     2.931965
      px      :     0.879070
      py      :     0.857228
      dz2     :     0.002590  d :     0.029513
      dxz     :     0.001614
      dyz     :     0.004720
      dx2y2   :     0.008827
      dxy     :     0.011762
  1 C s       :     3.118915  s :     3.118915
      pz      :     0.923814  p :     2.728852
      px      :     0.865416
      py      :     0.939622
      dz2     :     0.003307  d :     0.054207
      dxz     :     0.006574
      dyz     :     0.009854
      dx2y2   :     0.016386
      dxy     :     0.018086
  2 N s       :     3.562902  s :     3.562902
      pz      :     1.365476  p :     3.808565
      px      :     0.932685
      py      :     1.510403
      dz2     :     0.003044  d :     0.021328
      dxz     :     0.002672
      dyz     :     0.002906
      dx2y2   :     0.002940
      dxy     :     0.009767
  3 C s       :     3.034038  s :     3.034038
      pz      :     0.883911  p :     2.820160
      px      :     0.958785
      py      :     0.977464
      dz2     :     0.007207  d :     0.134554
      dxz     :     0.023453
      dyz     :     0.018619
      dx2y2   :     0.048358
      dxy     :     0.036916
  4 N s       :     3.297637  s :     3.297637
      pz      :     1.590214  p :     3.692075
      px      :     1.061928
      py      :     1.039933
      dz2     :     0.002052  d :     0.020513
      dxz     :     0.001908
      dyz     :     0.003067
      dx2y2   :     0.006553
      dxy     :     0.006933
  5 C s       :     3.016434  s :     3.016434
      pz      :     0.850530  p :     2.779027
      px      :     0.990663
      py      :     0.937834
      dz2     :     0.006621  d :     0.117118
      dxz     :     0.011048
      dyz     :     0.025671
      dx2y2   :     0.026534
      dxy     :     0.047244
  6 O s       :     3.680186  s :     3.680186
      pz      :     1.538246  p :     4.645399
      px      :     1.489241
      py      :     1.617913
      dz2     :     0.001969  d :     0.016483
      dxz     :     0.003446
      dyz     :     0.001542
      dx2y2   :     0.003684
      dxy     :     0.005842
  7 O s       :     3.689437  s :     3.689437
      pz      :     1.508076  p :     4.641233
      px      :     1.782238
      py      :     1.350919
      dz2     :     0.001949  d :     0.016378
      dxz     :     0.000090
      dyz     :     0.004922
      dx2y2   :     0.005898
      dxy     :     0.003520
  8 H s       :     0.986688  s :     0.986688
      pz      :     0.003827  p :     0.021542
      px      :     0.010539
      py      :     0.007177
  9 H s       :     0.824101  s :     0.824101
      pz      :     0.009778  p :     0.042675
      px      :     0.020163
      py      :     0.012733
 10 H s       :     1.019101  s :     1.019101
      pz      :     0.005720  p :     0.023459
      px      :     0.011695
      py      :     0.006044


                     *******************************
                     * LOEWDIN POPULATION ANALYSIS *
                     *******************************

----------------------
LOEWDIN ATOMIC CHARGES
----------------------
   0 C :   -0.198111
   1 C :    0.010935
   2 N :   -0.338645
   3 C :   -0.006140
   4 N :    0.032066
   5 C :    0.035860
   6 O :   -0.339848
   7 O :   -0.323637
   8 H :    0.017510
   9 H :    0.095615
  10 H :    0.014395

-------------------------------
LOEWDIN REDUCED ORBITAL CHARGES
-------------------------------
  0 C s       :     2.876026  s :     2.876026
      pz      :     1.156722  p :     3.236666
      px      :     1.014144
      py      :     1.065800
      dz2     :     0.007277  d :     0.085418
      dxz     :     0.003215
      dyz     :     0.010233
      dx2y2   :     0.027263
      dxy     :     0.037430
  1 C s       :     2.871355  s :     2.871355
      pz      :     0.905667  p :     2.986152
      px      :     0.994500
      py      :     1.085985
      dz2     :     0.007697  d :     0.131558
      dxz     :     0.012660
      dyz     :     0.021361
      dx2y2   :     0.042147
      dxy     :     0.047693
  2 N s       :     3.293634  s :     3.293634
      pz      :     1.362921  p :     3.998956
      px      :     1.093724
      py      :     1.542312
      dz2     :     0.006530  d :     0.046054
      dxz     :     0.005604
      dyz     :     0.003215
      dx2y2   :     0.008432
      dxy     :     0.022275
  3 C s       :     2.819204  s :     2.819204
      pz      :     0.872266  p :     2.874434
      px      :     1.009777
      py      :     0.992390
      dz2     :     0.016231  d :     0.312503
      dxz     :     0.045746
      dyz     :     0.039218
      dx2y2   :     0.116592
      dxy     :     0.094715
  4 N s       :     3.045462  s :     3.045462
      pz      :     1.515859  p :     3.863687
      px      :     1.170889
      py      :     1.176939
      dz2     :     0.005570  d :     0.058784
      dxz     :     0.003721
      dyz     :     0.006320
      dx2y2   :     0.020467
      dxy     :     0.022706
  5 C s       :     2.831383  s :     2.831383
      pz      :     0.849312  p :     2.861752
      px      :     0.995195
      py      :     1.017245
      dz2     :     0.015391  d :     0.271005
      dxz     :     0.023241
      dyz     :     0.050919
      dx2y2   :     0.064333
      dxy     :     0.117120
  6 O s       :     3.534764  s :     3.534764
      pz      :     1.532345  p :     4.776065
      px      :     1.574079
      py      :     1.669641
      dz2     :     0.004147  d :     0.029019
      dxz     :     0.004700
      dyz     :     0.001979
      dx2y2   :     0.006568
      dxy     :     0.011626
  7 O s       :     3.537032  s :     3.537032
      pz      :     1.504888  p :     4.757957
      px      :     1.788614
      py      :     1.464456
      dz2     :     0.004019  d :     0.028648
      dxz     :     0.000117
      dyz     :     0.006427
      dx2y2   :     0.012104
      dxy     :     0.005981
  8 H s       :     0.916567  s :     0.916567
      pz      :     0.012098  p :     0.065924
      px      :     0.033015
      py      :     0.020811
  9 H s       :     0.780954  s :     0.780954
      pz      :     0.034350  p :     0.123431
      px      :     0.054989
      py      :     0.034091
 10 H s       :     0.913534  s :     0.913534
      pz      :     0.020266  p :     0.072071
      px      :     0.034230
      py      :     0.017575


                      *****************************
                      * MAYER POPULATION ANALYSIS *
                      *****************************

  NA   - Mulliken gross atomic population
  ZA   - Total nuclear charge
  QA   - Mulliken gross atomic charge
  VA   - Mayer's total valence
  BVA  - Mayer's bonded valence
  FA   - Mayer's free valence

  ATOM       NA         ZA         QA         VA         BVA        FA
  0 C      6.1870     6.0000    -0.1870     3.7500     3.7500     0.0000
  1 C      5.9020     6.0000     0.0980     3.9462     3.9462     0.0000
  2 N      7.3928     7.0000    -0.3928     2.8431     2.8431    -0.0000
  3 C      5.9888     6.0000     0.0112     4.5578     4.5578    -0.0000
  4 N      7.0102     7.0000    -0.0102     3.1430     3.1430    -0.0000
  5 C      5.9126     6.0000     0.0874     4.3758     4.3758     0.0000
  6 O      8.3421     8.0000    -0.3421     2.1542     2.1542    -0.0000
  7 O      8.3470     8.0000    -0.3470     2.1774     2.1774     0.0000
  8 H      1.0082     1.0000    -0.0082     0.9853     0.9853    -0.0000
  9 H      0.8668     1.0000     0.1332     1.0287     1.0287    -0.0000
 10 H      1.0426     1.0000    -0.0426     1.0027     1.0027    -0.0000

  Mayer bond orders larger than 0.100000
B(  0-C ,  1-C ) :   1.5178 B(  0-C ,  5-C ) :   1.1153 B(  0-C , 10-H ) :   0.9682 
B(  1-C ,  2-N ) :   1.3767 B(  1-C ,  8-H ) :   0.9626 B(  2-N ,  3-C ) :   1.3061 
B(  3-C ,  4-N ) :   1.0992 B(  3-C ,  6-O ) :   2.0303 B(  4-N ,  5-C ) :   1.1304 
B(  4-N ,  9-H ) :   0.8862 B(  5-C ,  7-O ) :   2.0155 

-------
TIMINGS
-------

Total SCF time: 0 days 0 hours 0 min 19 sec 

Total time                  ....      19.458 sec
Sum of individual times     ....      19.269 sec  ( 99.0%)

Fock matrix formation       ....      18.679 sec  ( 96.0%)
  XC integration            ....       1.523 sec  (  8.2% of F)
    Basis function eval.    ....       0.476 sec  ( 31.3% of XC)
    Density eval.           ....       0.385 sec  ( 25.3% of XC)
    XC-Functional eval.     ....       0.103 sec  (  6.8% of XC)
    XC-Potential eval.      ....       0.437 sec  ( 28.7% of XC)
Diagonalization             ....       0.007 sec  (  0.0%)
Density matrix formation    ....       0.001 sec  (  0.0%)
Population analysis         ....       0.004 sec  (  0.0%)
Initial guess               ....       0.156 sec  (  0.8%)
Orbital Transformation      ....       0.000 sec  (  0.0%)
Orbital Orthonormalization  ....       0.000 sec  (  0.0%)
DIIS solution               ....       0.004 sec  (  0.0%)
SOSCF solution              ....       0.013 sec  (  0.1%)
Grid generation             ....       0.405 sec  (  2.1%)

-------------------------   --------------------
FINAL SINGLE POINT ENERGY      -413.815615833809
-------------------------   --------------------

------------------------------------------------------------------------------
                         ORCA SCF GRADIENT CALCULATION
------------------------------------------------------------------------------

Gradient of the Kohn-Sham DFT energy:
Kohn-Sham wavefunction type      ... RKS
Hartree-Fock exchange scaling    ...    0.200
Number of operators              ...    1
Number of atoms                  ...   11
Basis set dimensions             ...  127
Integral neglect threshold       ... 2.5e-11
Integral primitive cutoff        ... 2.5e-12

Nuclear repulsion gradient       ... done
One Electron Gradient            ... done
Pre-screening matrix             ... done
Starting the two electron gradient:
Two electron gradient done
Exchange-correlation gradient    ... done

------------------
CARTESIAN GRADIENT
------------------

   1   C   :    0.003671083   -0.045054547    0.004261247
   2   C   :    0.066612770    0.034055847   -0.001470344
   3   N   :   -0.046523490   -0.022292330    0.001573070
   4   C   :   -0.066909859    0.075238970   -0.009079167
   5   N   :    0.015170105   -0.013999070    0.001592170
   6   C   :   -0.053862910    0.013750219   -0.002815612
   7   O   :    0.067752638   -0.008547963    0.002894722
   8   O   :    0.010774266   -0.033979922    0.003196789
   9   H   :    0.000715622    0.009138625   -0.000949595
  10   H   :    0.005522253   -0.003547081    0.000565498
  11   H   :   -0.002922479   -0.004762747    0.000231220

Difference to translation invariance:
           :   -0.0000000000   -0.0000000000   -0.0000000000

Norm of the cartesian gradient     ...    0.1737358679
RMS gradient                       ...    0.0302435326
MAX gradient                       ...    0.0752389699

-------
TIMINGS
-------

Total SCF gradient time            ...        6.001 sec

One electron gradient       ....       0.032 sec  (  0.5%)
Prescreening matrices       ....       0.041 sec  (  0.7%)
Two electron gradient       ....       4.039 sec  ( 67.3%)
XC gradient                 ....       1.549 sec  ( 25.8%)
CPCM gradient               ....       0.246 sec  (  4.1%)
   A-Matrix (El+Nuc)        ....       0.003 sec  (  0.0%)
   Potential                ....       0.243 sec  (  4.0%)
------------------------------------------------------------------------------
                         ORCA GEOMETRY RELAXATION STEP
------------------------------------------------------------------------------

Reading the OPT-File                    .... done
Getting information on internals        .... done
Copying old internal coords+grads       .... done
Making the new internal coordinates     .... (new redundants).... done
Validating the new internal coordinates .... (new redundants).... done
Calculating the B-matrix                .... done
Calculating the G,G- and P matrices     .... done
Transforming gradient to internals      .... done
Projecting the internal gradient        .... done
Number of atoms                         ....  11
Number of internal coordinates          ....  47
Current Energy                          ....  -413.815615834 Eh
Current gradient norm                   ....     0.173735868 Eh/bohr
Maximum allowed component of the step   ....  0.300
Current trust radius                    ....  0.300
Evaluating the initial hessian          ....  (Almloef) done
Projecting the Hessian                  .... done
Forming the augmented Hessian           .... done
Diagonalizing the augmented Hessian     .... done
Last element of RFO vector              ....  0.973477372
Lowest eigenvalues of augmented Hessian:
 -0.030863455  0.020269456  0.022523584  0.027918673  0.028919471
Length of the computed step             ....  0.235016572
The final length of the internal step   ....  0.235016572
Converting the step to cartesian space:
 Initial RMS(Int)=    0.0342806903
Transforming coordinates:
 Iter   0:  RMS(Cart)=    0.0471652124 RMS(Int)=    0.9170139009
 Iter   1:  RMS(Cart)=    0.0020284033 RMS(Int)=    0.9164918347
 Iter   2:  RMS(Cart)=    0.0001432184 RMS(Int)=    0.0001011102
 Iter   3:  RMS(Cart)=    0.0000149707 RMS(Int)=    0.0000110528
 Iter   4:  RMS(Cart)=    0.0000012045 RMS(Int)=    0.0000009453
 Iter   5:  RMS(Cart)=    0.0000001165 RMS(Int)=    0.0000000782
 Iter   6:  RMS(Cart)=    0.0000000102 RMS(Int)=    0.0000000085
done
Storing new coordinates                 .... done

                                .--------------------.
          ----------------------|Geometry convergence|-------------------------
          Item                value                   Tolerance       Converged
          ---------------------------------------------------------------------
          RMS gradient        0.0199863550            0.0001000000      NO
          MAX gradient        0.0550653797            0.0003000000      NO
          RMS step            0.0342806903            0.0020000000      NO
          MAX step            0.1120402244            0.0040000000      NO
          ........................................................
          Max(Bonds)      0.0372      Max(Angles)    6.42
          Max(Dihed)        0.23      Max(Improp)    0.00
          ---------------------------------------------------------------------

The optimization has not yet converged - more geometry cycles are needed


    ---------------------------------------------------------------------------
                         Redundant Internal Coordinates
                            (Angstroem and degrees)

        Definition                    Value    dE/dq     Step     New-Value
    ----------------------------------------------------------------------------
     1. B(C   1,C   0)                1.3353 -0.047454  0.0315    1.3668   
     2. B(N   2,C   1)                1.4074  0.038269 -0.0372    1.3702   
     3. B(C   3,N   2)                1.4048  0.012087 -0.0120    1.3928   
     4. B(N   4,C   3)                1.3472 -0.041636  0.0323    1.3795   
     5. B(C   5,N   4)                1.3577 -0.027982  0.0230    1.3807   
     6. B(C   5,C   0)                1.4734  0.022261 -0.0234    1.4500   
     7. B(O   6,C   3)                1.2122 -0.052371  0.0251    1.2373   
     8. B(O   7,C   5)                1.2205 -0.033163  0.0163    1.2368   
     9. B(H   8,C   1)                1.0908 -0.004529  0.0061    1.0969   
    10. B(H   9,N   4)                1.0122 -0.006585  0.0076    1.0197   
    11. B(H  10,C   0)                1.0861 -0.004837  0.0065    1.0926   
    12. A(C   1,C   0,C   5)          121.43  0.009671   -1.22    120.21   
    13. A(C   1,C   0,H  10)          122.36 -0.007715    1.02    123.38   
    14. A(C   5,C   0,H  10)          116.21 -0.001956    0.20    116.41   
    15. A(N   2,C   1,H   8)          120.58  0.022364   -3.08    117.49   
    16. A(C   0,C   1,N   2)          119.57 -0.028190    3.59    123.16   
    17. A(C   0,C   1,H   8)          119.85  0.005826   -0.50    119.35   
    18. A(C   1,N   2,C   3)          119.31  0.005965   -1.06    118.26   
    19. A(N   2,C   3,N   4)          120.19  0.009520   -1.29    118.91   
    20. A(N   4,C   3,O   6)          127.56  0.045545   -5.13    122.43   
    21. A(N   2,C   3,O   6)          112.25 -0.055065    6.42    118.67   
    22. A(C   5,N   4,H   9)          117.65  0.007087   -0.99    116.67   
    23. A(C   3,N   4,H   9)          119.14  0.007337   -1.02    118.12   
    24. A(C   3,N   4,C   5)          123.20 -0.014428    2.01    125.21   
    25. A(C   0,C   5,N   4)          116.29  0.017460   -2.03    114.25   
    26. A(N   4,C   5,O   7)          122.82  0.006788   -0.82    122.01   
    27. A(C   0,C   5,O   7)          120.89 -0.024248    2.85    123.74   
    28. D(N   2,C   1,C   0,C   5)     -0.13 -0.000144    0.08     -0.05   
    29. D(H   8,C   1,C   0,H  10)     -0.05 -0.000073    0.03     -0.02   
    30. D(N   2,C   1,C   0,H  10)    179.87 -0.000117    0.06    179.93   
    31. D(H   8,C   1,C   0,C   5)    179.95 -0.000101    0.05    180.00   
    32. D(C   3,N   2,C   1,H   8)   -179.40  0.000091   -0.19   -179.59   
    33. D(C   3,N   2,C   1,C   0)      0.69  0.000150   -0.23      0.46   
    34. D(N   4,C   3,N   2,C   1)     -0.43 -0.000204    0.22     -0.21   
    35. D(O   6,C   3,N   2,C   1)    179.71 -0.000086    0.02    179.74   
    36. D(H   9,N   4,C   3,O   6)      0.30 -0.000059    0.03      0.33   
    37. D(H   9,N   4,C   3,N   2)   -179.52  0.000253   -0.22   -179.75   
    38. D(C   5,N   4,C   3,O   6)    179.40 -0.000265    0.21    179.60   
    39. D(C   5,N   4,C   3,N   2)     -0.43  0.000047   -0.04     -0.47   
    40. D(O   7,C   5,C   0,C   1)    179.29 -0.000193    0.21    179.50   
    41. D(N   4,C   5,C   0,H  10)    179.33 -0.000140    0.12    179.45   
    42. D(N   4,C   5,C   0,C   1)     -0.67 -0.000114    0.10     -0.57   
    43. D(O   7,C   5,N   4,H   9)      0.10  0.000014   -0.04      0.06   
    44. D(O   7,C   5,N   4,C   3)   -179.01  0.000211   -0.22   -179.23   
    45. D(C   0,C   5,N   4,H   9)   -179.94 -0.000079    0.06   -179.87   
    46. D(C   0,C   5,N   4,C   3)      0.96  0.000118   -0.11      0.84   
    47. D(O   7,C   5,C   0,H  10)     -0.71 -0.000219    0.23     -0.48   
    ----------------------------------------------------------------------------

         *************************************************************
         *                GEOMETRY OPTIMIZATION CYCLE   2            *
         *************************************************************
---------------------------------
CARTESIAN COORDINATES (ANGSTROEM)
---------------------------------
  C      1.345813    0.545082   -0.019145
  C      1.214434   -0.810988    0.091671
  N      0.001141   -1.447219    0.116959
  C     -1.151568   -0.672236    0.015358
  N     -1.025959    0.696376   -0.101411
  C      0.169394    1.387169   -0.118193
  O     -2.251379   -1.238771    0.032065
  O      0.212845    2.619653   -0.211716
  H      2.114283   -1.433880    0.165630
  H     -1.877452    1.253128   -0.171076
  H      2.311637    1.055566   -0.038492

----------------------------
CARTESIAN COORDINATES (A.U.)
----------------------------
  NO LB      ZA    FRAG     MASS         X           Y           Z
   0 C     6.0000    0    12.011    2.543218    1.030055   -0.036179
   1 C     6.0000    0    12.011    2.294948   -1.532546    0.173232
   2 N     7.0000    0    14.007    0.002157   -2.734848    0.221021
   3 C     6.0000    0    12.011   -2.176148   -1.270342    0.029023
   4 N     7.0000    0    14.007   -1.938781    1.315961   -0.191638
   5 C     6.0000    0    12.011    0.320108    2.621369   -0.223353
   6 O     8.0000    0    15.999   -4.254490   -2.340937    0.060594
   7 O     8.0000    0    15.999    0.402219    4.950426   -0.400084
   8 H     1.0000    0     1.008    3.995417   -2.709640    0.312995
   9 H     1.0000    0     1.008   -3.547870    2.368068   -0.323286
  10 H     1.0000    0     1.008    4.368360    1.994731   -0.072740

--------------------------------
INTERNAL COORDINATES (ANGSTROEM)
--------------------------------
 C      0   0   0     0.000000000000     0.00000000     0.00000000
 C      1   0   0     1.366918433043     0.00000000     0.00000000
 N      2   1   0     1.370221938279   123.17809878     0.00000000
 C      3   2   1     1.392716679746   118.23928199     0.45602194
 N      4   3   2     1.379316124104   118.87755392   359.78790527
 C      5   4   3     1.380704319326   125.19115471   359.52781043
 O      4   3   2     1.237265232269   118.68138149   179.72208168
 O      6   5   4     1.236790758902   121.99946761   180.77358272
 H      2   1   3     1.096901249477   119.33906405   180.04739000
 H      5   4   3     1.019737825220   118.13044497   180.25399216
 H      1   2   3     1.092604542844   123.36057689   179.92988713

---------------------------
INTERNAL COORDINATES (A.U.)
---------------------------
 C      0   0   0     0.000000000000     0.00000000     0.00000000
 C      1   0   0     2.583101485860     0.00000000     0.00000000
 N      2   1   0     2.589344206038   123.17809878     0.00000000
 C      3   2   1     2.631853106865   118.23928199     0.45602194
 N      4   3   2     2.606529726659   118.87755392   359.78790527
 C      5   4   3     2.609153035449   125.19115471   359.52781043
 O      4   3   2     2.338092444011   118.68138149   179.72208168
 O      6   5   4     2.337195819289   121.99946761   180.77358272
 H      2   1   3     2.072842957467   119.33906405   180.04739000
 H      5   4   3     1.927025218067   118.13044497   180.25399216
 H      1   2   3     2.064723358654   123.36057689   179.92988713


Diagonalization of the overlap matrix:
Smallest eigenvalue                        ... 1.319e-03
Time for diagonalization                   ...    0.002 sec
Threshold for overlap eigenvalues          ... 1.000e-08
Number of eigenvalues below threshold      ... 0
Time for construction of square roots      ...    0.001 sec
Total time needed                          ...    0.003 sec

-------------------
DFT GRID GENERATION
-------------------

General Integration Accuracy     IntAcc      ...  4.340
Radial Grid Type                 RadialGrid  ... Gauss-Chebyshev
Angular Grid (max. acc.)         AngularGrid ... Lebedev-110
Angular grid pruning method      GridPruning ... 3 (G Style)
Weight generation scheme         WeightScheme... Becke
Basis function cutoff            BFCut       ...    1.0000e-11
Integration weight cutoff        WCut        ...    1.0000e-14
Grids for H and He will be reduced by one unit

# of grid points (after initial pruning)     ...  15842 (   0.0 sec)
# of grid points (after weights+screening)   ...  14950 (   0.0 sec)
nearest neighbour list constructed           ...    0.0 sec
Grid point re-assignment to atoms done       ...    0.0 sec
Grid point division into batches done        ...    0.0 sec
Reduced shell lists constructed in    0.1 sec

Total number of grid points                  ...    14950
Total number of batches                      ...      239
Average number of points per batch           ...       62
Average number of grid points per atom       ...     1359
Average number of shells per batch           ...    42.22 (74.06%)
Average number of basis functions per batch  ...    95.23 (74.99%)
Average number of large shells per batch     ...    34.39 (81.46%)
Average number of large basis fcns per batch ...    76.32 (80.14%)
Maximum spatial batch extension              ...  18.23, 21.07, 25.60 au
Average spatial batch extension              ...   3.63,  3.85,  5.10 au

Time for grid setup =    0.068 sec


--------------------
CPCM SOLVATION MODEL
--------------------
CPCM parameters:
  Epsilon                                         ...      80.4000
  Refrac                                          ...       1.3300
  Rsolv                                           ...       1.3000
  Surface type                                    ...    GEPOL SES
  Epsilon function type                           ...         CPCM
Radii:
 Radius for C  used is    3.7795 Bohr (=   2.0000 Ang.)
 Radius for N  used is    3.4582 Bohr (=   1.8300 Ang.)
 Radius for O  used is    3.2503 Bohr (=   1.7200 Ang.)
 Radius for H  used is    2.4566 Bohr (=   1.3000 Ang.)
Calculating surface                               ...        done! (  0.0s)
GEPOL surface points                              ...          358
GEPOL Volume                                      ...     790.5991
GEPOL Surface-area                                ...     472.0842
Calculating surface distance matrix               ...        done! (  0.0s)
Performing Cholesky decomposition & store         ...        done! (  0.0s)
Overall time for CPCM initialization              ...                 0.0s
--------------
SCF ITERATIONS
--------------
ITER       Energy         Delta-E        Max-DP      RMS-DP      [F,P]     Damp
               ***  Starting incremental Fock matrix formation  ***
  0   -413.8270604826   0.000000000000 0.00949661  0.00044608  0.0363742 0.7000
                      *** Initiating the SOSCF procedure ***
                      *** Re-Reading the Fockian *** 
                      *** Removing any level shift *** 
ITER      Energy       Delta-E        Grad      Rot      Max-DP    RMS-DP
  1   -413.82970850  -0.0026480135  0.003219  0.003219  0.026930  0.001321
               *** Restarting incremental Fock matrix formation ***
  2   -413.83624307  -0.0065345782  0.002065  0.008655  0.014953  0.000424
  3   -413.83608393   0.0001591450  0.004543  0.003511  0.009499  0.000248
  4   -413.83650581  -0.0004218783  0.000434  0.001895  0.002259  0.000073
  5   -413.83650230   0.0000035040  0.000546  0.000832  0.001181  0.000040
  6   -413.83651157  -0.0000092654  0.000059  0.000117  0.000273  0.000012
  7   -413.83651154   0.0000000321  0.000065  0.000149  0.000173  0.000007
  8   -413.83651175  -0.0000002105  0.000018  0.000058  0.000099  0.000003
  9   -413.83651174   0.0000000073  0.000025  0.000032  0.000052  0.000002
 10   -413.83651176  -0.0000000173  0.000003  0.000010  0.000017  0.000001
 11   -413.83651176   0.0000000000  0.000005  0.000007  0.000012  0.000000
                  ***Gradient check signals convergence***
              ***Rediagonalizing the Fockian in SOSCF/NRSCF***

               *****************************************************
               *                     SUCCESS                       *
               *           SCF CONVERGED AFTER  12 CYCLES          *
               *****************************************************

Setting up the final grid:

General Integration Accuracy     IntAcc      ...  4.670
Radial Grid Type                 RadialGrid  ... Gauss-Chebyshev
Angular Grid (max. acc.)         AngularGrid ... Lebedev-302
Angular grid pruning method      GridPruning ... 3 (G Style)
Weight generation scheme         WeightScheme... Becke
Basis function cutoff            BFCut       ...    1.0000e-11
Integration weight cutoff        WCut        ...    1.0000e-14
Grids for H and He will be reduced by one unit

# of grid points (after initial pruning)     ...  59878 (   0.0 sec)
# of grid points (after weights+screening)   ...  55923 (   0.0 sec)
nearest neighbour list constructed           ...    0.0 sec
Grid point re-assignment to atoms done       ...    0.0 sec
Grid point division into batches done        ...    0.1 sec
Reduced shell lists constructed in    0.3 sec

Total number of grid points                  ...    55923
Total number of batches                      ...      880
Average number of points per batch           ...       63
Average number of grid points per atom       ...     5084
Average number of shells per batch           ...    38.39 (67.35%)
Average number of basis functions per batch  ...    85.97 (67.70%)
Average number of large shells per batch     ...    30.54 (79.54%)
Average number of large basis fcns per batch ...    67.15 (78.11%)
Maximum spatial batch extension              ...  16.67, 16.84, 20.70 au
Average spatial batch extension              ...   2.54,  2.57,  2.99 au

Final grid set up in    0.3 sec
Final integration                            ... done (   0.3 sec)
Change in XC energy                          ...    -0.000424470
Integrated number of electrons               ...    57.999976607
Previous integrated no of electrons          ...    57.997862876
Total Energy       :         -413.83693623 Eh          -11261.07554 eV
  Last Energy change         ...    1.5234e-11  Tolerance :   1.0000e-08
  Last MAX-Density change    ...    3.7939e-06  Tolerance :   1.0000e-07
             **** THE GBW FILE WAS UPDATED (Uracil_m1.gbw) ****
             **** DENSITY FILE WAS UPDATED (Uracil_m1.scfp) ****
             **** ENERGY FILE WAS UPDATED (Uracil_m1.en.tmp) ****
             **** THE GBW FILE WAS UPDATED (Uracil_m1.gbw) ****
             **** DENSITY FILE WAS UPDATED (Uracil_m1.scfp) ****
Total SCF time: 0 days 0 hours 0 min 15 sec 

-------------------------   --------------------
FINAL SINGLE POINT ENERGY      -413.836936227598
-------------------------   --------------------

------------------------------------------------------------------------------
                         ORCA SCF GRADIENT CALCULATION
------------------------------------------------------------------------------

Gradient of the Kohn-Sham DFT energy:
Kohn-Sham wavefunction type      ... RKS
Hartree-Fock exchange scaling    ...    0.200
Number of operators              ...    1
Number of atoms                  ...   11
Basis set dimensions             ...  127
Integral neglect threshold       ... 2.5e-11
Integral primitive cutoff        ... 2.5e-12

Nuclear repulsion gradient       ... done
One Electron Gradient            ... done
Pre-screening matrix             ... done
Starting the two electron gradient:
Two electron gradient done
Exchange-correlation gradient    ... done

------------------
CARTESIAN GRADIENT
------------------

   1   C   :   -0.000780524   -0.017261248    0.001559326
   2   C   :    0.032185339    0.010465314   -0.000199723
   3   N   :   -0.011559301   -0.016678044    0.001556154
   4   C   :   -0.024135531    0.041841515   -0.004232392
   5   N   :    0.007054253   -0.006835028    0.000398206
   6   C   :   -0.025209496    0.002102239   -0.000818590
   7   O   :    0.013094221   -0.012091597    0.001369508
   8   O   :    0.008480905   -0.007285894    0.001002670
   9   H   :    0.000845784    0.003316040   -0.000392951
  10   H   :    0.000135846    0.001367684   -0.000035867
  11   H   :   -0.000111496    0.001059019   -0.000206342

Difference to translation invariance:
           :   -0.0000000000   -0.0000000000   -0.0000000000

Norm of the cartesian gradient     ...    0.0735495173
RMS gradient                       ...    0.0128033276
MAX gradient                       ...    0.0418415148

-------
TIMINGS
-------

Total SCF gradient time            ...        6.035 sec

One electron gradient       ....       0.033 sec  (  0.5%)
Prescreening matrices       ....       0.042 sec  (  0.7%)
Two electron gradient       ....       4.027 sec  ( 66.7%)
XC gradient                 ....       1.588 sec  ( 26.3%)
CPCM gradient               ....       0.254 sec  (  4.2%)
   A-Matrix (El+Nuc)        ....       0.002 sec  (  0.0%)
   Potential                ....       0.252 sec  (  4.2%)
------------------------------------------------------------------------------
                         ORCA GEOMETRY RELAXATION STEP
------------------------------------------------------------------------------

Reading the OPT-File                    .... done
Getting information on internals        .... done
Copying old internal coords+grads       .... done
Making the new internal coordinates     .... (new redundants).... done
Validating the new internal coordinates .... (new redundants).... done
Calculating the B-matrix                .... done
Calculating the G,G- and P matrices     .... done
Transforming gradient to internals      .... done
Projecting the internal gradient        .... done
Number of atoms                         ....  11
Number of internal coordinates          ....  47
Current Energy                          ....  -413.836936228 Eh
Current gradient norm                   ....     0.073549517 Eh/bohr
Maximum allowed component of the step   ....  0.300
Current trust radius                    ....  0.300
Updating the Hessian (BFGS)             .... done
Forming the augmented Hessian           .... done
Diagonalizing the augmented Hessian     .... done
Last element of RFO vector              ....  0.984590945
Lowest eigenvalues of augmented Hessian:
 -0.009326076  0.020270320  0.022523977  0.027919295  0.028919530
Length of the computed step             ....  0.177610107
The final length of the internal step   ....  0.177610107
Converting the step to cartesian space:
 Initial RMS(Int)=    0.0259070967
Transforming coordinates:
 Iter   0:  RMS(Cart)=    0.0367351647 RMS(Int)=    1.5868439688
 Iter   1:  RMS(Cart)=    0.0010782058 RMS(Int)=    0.0008163149
 Iter   2:  RMS(Cart)=    0.0000498394 RMS(Int)=    0.0000291311
 Iter   3:  RMS(Cart)=    0.0000033972 RMS(Int)=    0.0000027608
 Iter   4:  RMS(Cart)=    0.0000001785 RMS(Int)=    0.0000001122
 Iter   5:  RMS(Cart)=    0.0000000124 RMS(Int)=    0.0000000098
done
Storing new coordinates                 .... done

                                .--------------------.
          ----------------------|Geometry convergence|-------------------------
          Item                value                   Tolerance       Converged
          ---------------------------------------------------------------------
          Energy change      -0.0213203938            0.0000050000      NO
          RMS gradient        0.0077952174            0.0001000000      NO
          MAX gradient        0.0210675929            0.0003000000      NO
          RMS step            0.0259070967            0.0020000000      NO
          MAX step            0.0747628993            0.0040000000      NO
          ........................................................
          Max(Bonds)      0.0323      Max(Angles)    4.28
          Max(Dihed)        0.38      Max(Improp)    0.00
          ---------------------------------------------------------------------

The optimization has not yet converged - more geometry cycles are needed


    ---------------------------------------------------------------------------
                         Redundant Internal Coordinates
                            (Angstroem and degrees)

        Definition                    Value    dE/dq     Step     New-Value
    ----------------------------------------------------------------------------
     1. B(C   1,C   0)                1.3669 -0.014846  0.0176    1.3845   
     2. B(N   2,C   1)                1.3702  0.019152 -0.0323    1.3380   
     3. B(C   3,N   2)                1.3927  0.017763 -0.0289    1.3639   
     4. B(N   4,C   3)                1.3793 -0.012961  0.0179    1.3972   
     5. B(C   5,N   4)                1.3807 -0.009201  0.0136    1.3943   
     6. B(C   5,C   0)                1.4501  0.009951 -0.0181    1.4321   
     7. B(O   6,C   3)                1.2373 -0.006084  0.0060    1.2433   
     8. B(O   7,C   5)                1.2368 -0.007038  0.0065    1.2433   
     9. B(H   8,C   1)                1.0969 -0.001216  0.0029    1.0998   
    10. B(H   9,N   4)                1.0197  0.000636 -0.0011    1.0187   
    11. B(H  10,C   0)                1.0926  0.000400 -0.0008    1.0918   
    12. A(C   1,C   0,C   5)          120.24  0.006463   -1.43    118.82   
    13. A(C   1,C   0,H  10)          123.36 -0.002198    0.43    123.79   
    14. A(C   5,C   0,H  10)          116.40 -0.004265    1.00    117.40   
    15. A(N   2,C   1,H   8)          117.48  0.010183   -2.42    115.07   
    16. A(C   0,C   1,N   2)          123.18 -0.013693    3.01    126.19   
    17. A(C   0,C   1,H   8)          119.34  0.003510   -0.59    118.75   
    18. A(C   1,N   2,C   3)          118.24  0.002211   -0.74    117.50   
    19. A(N   2,C   3,N   4)          118.88  0.002838   -0.69    118.19   
    20. A(N   4,C   3,O   6)          122.44  0.018229   -3.59    118.85   
    21. A(N   2,C   3,O   6)          118.68 -0.021068    4.28    122.96   
    22. A(C   5,N   4,H   9)          116.67  0.001701   -0.43    116.25   
    23. A(C   3,N   4,H   9)          118.13  0.004046   -1.00    117.13   
    24. A(C   3,N   4,C   5)          125.19 -0.005749    1.43    126.62   
    25. A(C   0,C   5,N   4)          114.27  0.007927   -1.58    112.68   
    26. A(N   4,C   5,O   7)          122.00  0.006255   -1.28    120.72   
    27. A(C   0,C   5,O   7)          123.73 -0.014181    2.86    126.59   
    28. D(N   2,C   1,C   0,C   5)     -0.05 -0.000076    0.05      0.01   
    29. D(H   8,C   1,C   0,H  10)     -0.02 -0.000030    0.01     -0.01   
    30. D(N   2,C   1,C   0,H  10)    179.93 -0.000049   -0.01    179.92   
    31. D(H   8,C   1,C   0,C   5)    180.00 -0.000057    0.08    180.07   
    32. D(C   3,N   2,C   1,H   8)   -179.59  0.000104   -0.30   -179.89   
    33. D(C   3,N   2,C   1,C   0)      0.46  0.000125   -0.27      0.18   
    34. D(N   4,C   3,N   2,C   1)     -0.21 -0.000086    0.18     -0.03   
    35. D(O   6,C   3,N   2,C   1)    179.72 -0.000098    0.32    180.04   
    36. D(H   9,N   4,C   3,O   6)      0.32  0.000107   -0.24      0.09   
    37. D(H   9,N   4,C   3,N   2)   -179.75  0.000067   -0.08   -179.82   
    38. D(C   5,N   4,C   3,O   6)    179.60 -0.000028   -0.00    179.60   
    39. D(C   5,N   4,C   3,N   2)     -0.47 -0.000068    0.16     -0.31   
    40. D(O   7,C   5,C   0,C   1)    179.50 -0.000097    0.15    179.65   
    41. D(N   4,C   5,C   0,H  10)    179.45 -0.000156    0.34    179.79   
    42. D(N   4,C   5,C   0,C   1)     -0.57 -0.000131    0.28     -0.29   
    43. D(O   7,C   5,N   4,H   9)      0.06  0.000004   -0.02      0.04   
    44. D(O   7,C   5,N   4,C   3)   -179.23  0.000121   -0.25   -179.47   
    45. D(C   0,C   5,N   4,H   9)   -179.88  0.000053   -0.15   -180.03   
    46. D(C   0,C   5,N   4,C   3)      0.84  0.000170   -0.38      0.46   
    47. D(O   7,C   5,C   0,H  10)     -0.48 -0.000122    0.21     -0.27   
    ----------------------------------------------------------------------------

         *************************************************************
         *                GEOMETRY OPTIMIZATION CYCLE   3            *
         *************************************************************
---------------------------------
CARTESIAN COORDINATES (ANGSTROEM)
---------------------------------
  C      1.351099    0.567023   -0.020677
  C      1.179748   -0.802688    0.089190
  N      0.011160   -1.453909    0.113340
  C     -1.126637   -0.708385    0.017921
  N     -0.998105    0.677870   -0.097364
  C      0.192457    1.403111   -0.120438
  O     -2.265583   -1.206730    0.030699
  O      0.179244    2.642475   -0.218001
  H      2.070991   -1.442379    0.166846
  H     -1.857736    1.220256   -0.164890
  H      2.326552    1.057236   -0.034975

----------------------------
CARTESIAN COORDINATES (A.U.)
----------------------------
  NO LB      ZA    FRAG     MASS         X           Y           Z
   0 C     6.0000    0    12.011    2.553208    1.071518   -0.039074
   1 C     6.0000    0    12.011    2.229400   -1.516861    0.168544
   2 N     7.0000    0    14.007    0.021089   -2.747490    0.214181
   3 C     6.0000    0    12.011   -2.129036   -1.338653    0.033866
   4 N     7.0000    0    14.007   -1.886145    1.280989   -0.183991
   5 C     6.0000    0    12.011    0.363691    2.651495   -0.227596
   6 O     8.0000    0    15.999   -4.281331   -2.280389    0.058012
   7 O     8.0000    0    15.999    0.338723    4.993554   -0.411962
   8 H     1.0000    0     1.008    3.913606   -2.725702    0.315293
   9 H     1.0000    0     1.008   -3.510612    2.305950   -0.311597
  10 H     1.0000    0     1.008    4.396545    1.997887   -0.066093

--------------------------------
INTERNAL COORDINATES (ANGSTROEM)
--------------------------------
 C      0   0   0     0.000000000000     0.00000000     0.00000000
 C      1   0   0     1.384753024517     0.00000000     0.00000000
 N      2   1   0     1.338009388579   126.22281293     0.00000000
 C      3   2   1     1.363632172411   117.47614504     0.17997782
 N      4   3   2     1.396965846424   118.13377892   359.96740584
 C      5   4   3     1.394254218987   126.59162318   359.68728038
 O      4   3   2     1.243264995446   122.99130915   180.05447550
 O      6   5   4     1.243268683706   120.71408395   180.52064301
 H      2   1   3     1.099795236831   118.72803496   180.07414874
 H      5   4   3     1.018679582589   117.14128333   180.17471043
 H      1   2   3     1.091796929235   123.75991335   179.91154019

---------------------------
INTERNAL COORDINATES (A.U.)
---------------------------
 C      0   0   0     0.000000000000     0.00000000     0.00000000
 C      1   0   0     2.616803979457     0.00000000     0.00000000
 N      2   1   0     2.528471309030   126.22281293     0.00000000
 C      3   2   1     2.576891353261   117.47614504     0.17997782
 N      4   3   2     2.639882868182   118.13377892   359.96740584
 C      5   4   3     2.634758634949   126.59162318   359.68728038
 O      4   3   2     2.349430353284   122.99130915   180.05447550
 O      6   5   4     2.349437323084   120.71408395   180.52064301
 H      2   1   3     2.078311801001   118.72803496   180.07414874
 H      5   4   3     1.925025429310   117.14128333   180.17471043
 H      1   2   3     2.063197190110   123.75991335   179.91154019


Diagonalization of the overlap matrix:
Smallest eigenvalue                        ... 1.292e-03
Time for diagonalization                   ...    0.002 sec
Threshold for overlap eigenvalues          ... 1.000e-08
Number of eigenvalues below threshold      ... 0
[...]
     17      -0.042113   0.094786   0.007587  -0.117859   0.025530   0.008460
     18      -0.010162  -0.003747  -0.091449  -0.001474  -0.110454   0.047398
     19       0.031145   0.011667   0.509669   0.004769  -0.127369   0.284015
     20       0.376401   0.139910  -0.044706   0.058472   0.007910  -0.022081
     21      -0.005686   0.008793  -0.571761  -0.001044  -0.117745   0.133936
     22       0.018289  -0.027601  -0.076808   0.004167  -0.321427  -0.215864
     23       0.217955  -0.329560  -0.009067   0.045316   0.023764   0.021714
     24      -0.000880   0.004862   0.060868  -0.021774  -0.052878   0.267921
     25       0.002699  -0.014544  -0.090970   0.065224  -0.170704   0.083976
     26       0.031717  -0.177838   0.010192   0.788197   0.015032   0.001636
     27       0.014128  -0.002223   0.300999  -0.013491   0.183496  -0.348339
     28      -0.042740   0.007967  -0.138252   0.038184   0.422313  -0.179002
     29      -0.514891   0.092431   0.022113   0.465352  -0.029297   0.000866
     30      -0.011982  -0.017167   0.218076  -0.003798   0.256812  -0.390195
     31       0.035015   0.051907  -0.167273   0.010466   0.212409   0.411592
     32       0.420162   0.627537   0.019961   0.128152  -0.010077  -0.043864
                 12         13         14         15         16         17    
      0       0.076537   0.001980  -0.000508  -0.003395   0.152966   0.010938
      1       0.266641  -0.004323   0.000448   0.012269  -0.147421  -0.025716
      2      -0.019552  -0.056536   0.005164   0.158451   0.019533  -0.265900
      3       0.012379  -0.001016  -0.002721   0.000348   0.455522   0.007882
      4       0.306329   0.003084   0.007530   0.004947  -0.284974   0.004509
      5      -0.025124   0.033506   0.089911   0.078075   0.031813   0.146137
      6       0.082298   0.001216   0.000583   0.003760   0.164522   0.011706
      7      -0.061479  -0.003943  -0.001742  -0.008519  -0.003289  -0.022263
      8       0.007507  -0.042943  -0.021493  -0.103603   0.011831  -0.270102
      9      -0.118916  -0.000226   0.003545  -0.006411  -0.139184  -0.021097
     10      -0.316683  -0.000384  -0.010289   0.016849  -0.111687   0.050708
     11       0.022910   0.001332  -0.125996   0.208377  -0.011179   0.639092
     12       0.098792  -0.002123   0.001032  -0.001199  -0.189265   0.002736
     13      -0.269698   0.006334  -0.002835   0.000448   0.105585  -0.019812
     14       0.024439   0.078466  -0.034658  -0.000323  -0.008689  -0.272737
     15       0.009075  -0.000132  -0.005094   0.007095  -0.029031  -0.012216
     16      -0.003828   0.001454   0.015167  -0.020951   0.162941   0.038576
     17       0.000798   0.015061   0.184298  -0.262698  -0.017727   0.415521
     18      -0.354606  -0.000955  -0.000742  -0.000100  -0.281287  -0.003027
     19       0.081919   0.001315   0.003316  -0.004615  -0.039073  -0.014408
     20      -0.016560   0.016221   0.039228  -0.053227  -0.000249  -0.157881
     21       0.200810  -0.000361   0.001209  -0.002508  -0.044117   0.001972
     22      -0.009131   0.001223  -0.003859   0.008162   0.255396  -0.002551
     23       0.006028   0.012285  -0.043516   0.081776  -0.021827  -0.107185
     24       0.092007  -0.003130   0.001207   0.007969   0.380345   0.005159
     25       0.423389   0.009843  -0.003871  -0.020140  -0.413756   0.003694
     26      -0.034036   0.113728  -0.049960  -0.216257   0.045498   0.176035
     27       0.050993   0.028785  -0.000704   0.000761  -0.216692  -0.010361
     28      -0.346857  -0.081368   0.003107  -0.007083   0.086458   0.014117
     29       0.037754  -0.983077   0.032843  -0.083690  -0.012707   0.147658
     30       0.030997   0.000620   0.026584   0.025241   0.098851  -0.006042
     31       0.361932   0.000030  -0.080222  -0.073175   0.013894   0.024848
     32      -0.030616   0.002370  -0.962149  -0.880140   0.006543   0.287262
                 18         19         20         21         22         23    
      0       0.242773  -0.012716  -0.208334  -0.067678  -0.123930  -0.057106
      1       0.144637   0.005170  -0.004869  -0.084236   0.070886   0.011873
      2      -0.005518   0.062994  -0.011136   0.005006  -0.009238  -0.002456
      3      -0.062677   0.008443   0.072702  -0.026724  -0.014323  -0.138139
      4       0.120158  -0.014334  -0.011434   0.076514  -0.084444  -0.020616
      5      -0.011004  -0.167835   0.018695  -0.006996   0.006507  -0.002267
      6       0.045383   0.002312   0.052509   0.099197   0.139458   0.189261
      7      -0.425757  -0.001191  -0.037878   0.051081  -0.089992   0.054024
      8       0.036496   0.014514   0.003228  -0.001515   0.011395   0.000717
      9      -0.037488  -0.004431  -0.062842   0.004455  -0.139748   0.016328
     10       0.011871   0.004057   0.013970  -0.035572   0.355371  -0.111420
     11      -0.002084   0.038903  -0.006485   0.003126  -0.033556   0.009826
     12      -0.220164   0.009452   0.174973  -0.030370  -0.117657  -0.099085
     13       0.286281   0.005784   0.118625   0.026256  -0.199650  -0.005840
     14      -0.030127  -0.009487  -0.004099  -0.003046   0.013397  -0.002300
     15       0.056864   0.001156   0.030131   0.024529   0.306584   0.138981
     16      -0.042532  -0.000652  -0.041195   0.002310   0.032711  -0.010360
     17       0.005025   0.019594   0.002107   0.000423   0.005725   0.004675
     18       0.010786  -0.003651  -0.073005  -0.031257  -0.025858   0.001764
     19      -0.001434  -0.003854  -0.058925   0.005965  -0.023203   0.041425
     20       0.000402  -0.007959   0.003635  -0.001349   0.001324  -0.003422
     21      -0.028528  -0.000953  -0.019777  -0.008790  -0.007833  -0.013557
     22      -0.115069  -0.003091  -0.047769  -0.018659  -0.006788   0.016594
     23       0.008830  -0.003701   0.003877   0.001321   0.000333  -0.001762
     24       0.087256  -0.013308   0.227883   0.172340   0.346153  -0.561834
     25       0.327669   0.089878   0.194578   0.359134   0.396800  -0.601654
     26      -0.028882   0.943494  -0.098643  -0.025378  -0.023647   0.035152
     27      -0.040695   0.025174   0.460677   0.013608  -0.296709   0.125966
     28       0.597983   0.029374   0.573896   0.100990  -0.488206   0.366808
     29      -0.047183  -0.022473  -0.033042  -0.007662   0.031586  -0.026481
     30       0.286915  -0.012335  -0.371051   0.272790  -0.158220  -0.154133
     31       0.071742  -0.004235   0.321602  -0.844960   0.129537   0.199688
     32       0.002872  -0.253591  -0.013352   0.078279  -0.014584  -0.020919
                 24         25         26         27         28         29    
      0      -0.004091  -0.045680   0.234874   0.067032   0.054292  -0.071203
      1       0.130016   0.090619  -0.319389   0.273877  -0.048385   0.187187
      2      -0.010841  -0.008710   0.032840  -0.020757   0.005467  -0.017411
      3       0.049398   0.028583  -0.274333  -0.224104  -0.068787   0.001958
      4      -0.039866   0.015564   0.083030  -0.402856  -0.043544  -0.030258
      5       0.004604  -0.000592  -0.014458   0.027139   0.001776   0.002620
      6       0.018979   0.070829   0.310062   0.110253  -0.022949  -0.108958
      7      -0.049643  -0.039268  -0.030164   0.124488   0.015272  -0.003852
      8       0.004652   0.005214   0.011051  -0.007296  -0.001905  -0.002684
      9      -0.069613   0.005926  -0.068463  -0.013649   0.456461   0.491440
     10       0.107691   0.081418   0.238478  -0.096318   0.153886   0.108739
     11      -0.010763  -0.006701  -0.021719   0.007609  -0.000442   0.004221
     12      -0.005971   0.099976   0.132257   0.056349  -0.078284  -0.057812
     13      -0.147189   0.101111  -0.009390   0.088014  -0.115062   0.063051
     14       0.012028  -0.005573   0.004511  -0.005720   0.007337  -0.006831
     15      -0.142910  -0.051155  -0.307349  -0.096436  -0.053185   0.126199
     16      -0.030220   0.033662  -0.137484  -0.001094   0.351701  -0.622943
     17      -0.001488  -0.004231   0.003060  -0.002629  -0.030687   0.055222
     18       0.038979  -0.072262  -0.081055  -0.006277  -0.239906  -0.247026
     19       0.010188  -0.049264  -0.056878   0.010618  -0.095427  -0.102993
     20       0.000201   0.002161   0.002505  -0.001048   0.001460   0.001928
     21       0.037620   0.002892   0.021272   0.017892   0.015133  -0.018718
     22       0.044359  -0.083124   0.150814  -0.052401  -0.183130   0.337009
     23      -0.002678   0.007010  -0.011980   0.004872   0.015654  -0.028601
     24      -0.121828  -0.388479  -0.141315   0.515659   0.026668   0.013986
     25      -0.295904  -0.565515   0.285348   0.545542   0.106151   0.026414
     26       0.021138   0.036225  -0.026639  -0.031091  -0.008094  -0.001902
     27       0.457183  -0.280813   0.052123  -0.076368   0.350988  -0.115238
     28       0.591100  -0.515847  -0.144819  -0.125001   0.574670  -0.051608
     29      -0.035783   0.034382   0.013039   0.008078  -0.037008   0.001445
     30       0.260591   0.139497  -0.160084   0.244645  -0.035925   0.102081
     31      -0.423147  -0.313223   0.531103  -0.012655   0.198098  -0.254562
     32       0.042475   0.029899  -0.048957   0.007795  -0.017405   0.023958
                  30         31         32    
      0       0.005079  -0.079621   0.000526
      1      -0.000551  -0.037847  -0.000466
      2       0.000177   0.000935   0.000053
      3      -0.067615  -0.004486   0.000164
      4       0.053017   0.008514  -0.000168
      5      -0.006226  -0.000830   0.000020
      6      -0.000870   0.000489   0.000709
      7      -0.000796   0.000094  -0.000334
      8       0.000037   0.000002   0.000047
      9       0.002702   0.000338  -0.000620
     10      -0.000133   0.000300  -0.001036
     11       0.000083  -0.000015   0.000066
     12      -0.000197   0.000375  -0.062426
     13       0.000117   0.000189   0.038420
     14      -0.000014  -0.000006  -0.004982
     15       0.000785   0.002856   0.000722
     16      -0.000791  -0.003228   0.000955
     17       0.000085   0.000342  -0.000059
     18      -0.000721  -0.000073   0.000008
     19      -0.000203  -0.000042  -0.000018
     20      -0.000002   0.000005  -0.000001
     21      -0.000162  -0.000295  -0.000005
     22       0.000545   0.000749  -0.000020
     23      -0.000048  -0.000072  -0.000003
     24       0.803114   0.056992  -0.000843
     25      -0.580123  -0.046316   0.000572
     26       0.069993   0.005385  -0.000065
     27       0.001425  -0.001234   0.847416
     28       0.000125   0.000085  -0.521428
     29       0.000045  -0.000035   0.067773
     30      -0.072087   0.902202   0.001559
     31      -0.030153   0.415492   0.000754
     32       0.000493  -0.009370  -0.000018


-----------
IR SPECTRUM
-----------

 Mode    freq (cm**-1)   T**2         TX         TY         TZ
-------------------------------------------------------------------
   6:       165.79    8.649486  (  0.062403  -0.228214  -2.931469)
   7:       191.02    5.257959  ( -0.052669   0.184062   2.285018)
   8:       393.76   24.992210  (  4.445398  -2.263766   0.325597)
   9:       440.55   20.088496  ( -0.128025   0.351363   4.466391)
  10:       529.88   15.508487  (  2.743655   2.820437  -0.161171)
  11:       562.88    8.305299  ( -2.880294   0.009046  -0.095520)
  12:       610.85    4.486114  (  2.038908   0.572495   0.034917)
  13:       676.26   81.917506  (  0.242765  -0.711862  -9.019525)
  14:       735.62    9.756651  (  0.070668  -0.289871  -3.109282)
  15:       800.66   21.892147  (  0.139737  -0.381903  -4.661198)
  16:       804.67    5.376505  (  1.714044  -1.561586  -0.002754)
  17:       809.93   95.365238  ( -0.245149   0.766575   9.732292)
  18:       977.07   47.084685  ( -3.991663   5.553035  -0.561350)
  19:      1006.34    0.615996  ( -0.023330  -0.118216   0.775549)
  20:      1007.50    7.646125  ( -0.414677  -2.728609   0.169887)
  21:      1093.14    3.910196  (  1.965522   0.212404   0.042483)
  22:      1177.08   15.944785  ( -1.282724   3.764595  -0.356692)
  23:      1316.62  261.113963  ( -5.848163 -15.024422   1.086140)
  24:      1354.58   58.408445  ( -7.636448  -0.245370  -0.181370)
  25:      1389.96   19.716254  ( -4.235648   1.312069  -0.232419)
  26:      1491.64  284.274704  (-16.851569   0.247440  -0.487958)
  27:      1588.90  649.506847  (-14.668962 -20.798480   1.323493)
  28:      1686.70  1663.489018  ( 24.408842  32.611468  -2.046854)
  29:      1724.05  766.885274  ( 21.267088 -17.618997   2.041371)
  30:      3101.54   75.825103  ( -7.289002   4.729645  -0.570981)
  31:      3206.96    8.132700  ( -2.500358  -1.370048   0.062297)
  32:      3573.43   53.967416  (  6.263002  -3.806854   0.500084)

The first frequency considered to be a vibration is 6
The total number of vibrations considered is 27


--------------------------
THERMOCHEMISTRY AT 298.15K
--------------------------

Temperature         ... 298.15 K
Pressure            ... 1.00 atm
Total Mass          ... 111.08 AMU

Throughout the following assumptions are being made:
  (1) The electronic state is orbitally nondegenerate
  (2) There are no thermally accessible electronically excited states
  (3) Hindered rotations indicated by low frequency modes are not
      treated as such but are treated as vibrations and this may
      cause some error
  (4) All equations used are the standard statistical mechanics
      equations for an ideal gas
  (5) All vibrations are strictly harmonic

freq.     165.79  E(vib)   ...       0.39 
freq.     191.02  E(vib)   ...       0.36 
freq.     393.76  E(vib)   ...       0.20 
freq.     440.55  E(vib)   ...       0.17 
freq.     529.88  E(vib)   ...       0.13 
freq.     562.88  E(vib)   ...       0.11 
freq.     610.85  E(vib)   ...       0.10 
freq.     676.26  E(vib)   ...       0.08 
freq.     735.62  E(vib)   ...       0.06 
freq.     800.66  E(vib)   ...       0.05 
freq.     804.67  E(vib)   ...       0.05 
freq.     809.93  E(vib)   ...       0.05 
freq.     977.07  E(vib)   ...       0.03 
freq.    1006.34  E(vib)   ...       0.02 
freq.    1007.50  E(vib)   ...       0.02 
freq.    1093.14  E(vib)   ...       0.02 
freq.    1177.08  E(vib)   ...       0.01 
freq.    1316.62  E(vib)   ...       0.01 
freq.    1354.58  E(vib)   ...       0.01 
freq.    1389.96  E(vib)   ...       0.00 
freq.    1491.64  E(vib)   ...       0.00 
freq.    1588.90  E(vib)   ...       0.00 
freq.    1686.70  E(vib)   ...       0.00 
freq.    1724.05  E(vib)   ...       0.00 
freq.    3101.54  E(vib)   ...       0.00 
freq.    3206.96  E(vib)   ...       0.00 
freq.    3573.43  E(vib)   ...       0.00 

------------
INNER ENERGY
------------

The inner energy is: U= E(el) + E(ZPE) + E(vib) + E(rot) + E(trans)
    E(el)   - is the total energy from the electronic structure calculation
              = E(kin-el) + E(nuc-el) + E(el-el) + E(nuc-nuc)
    E(ZPE)  - the the zero temperature vibrational energy from the frequency calculation
    E(vib)  - the the finite temperature correction to E(ZPE) due to population
              of excited vibrational states
    E(rot)  - is the rotational thermal energy
    E(trans)- is the translational thermal energy

Summary of contributions to the inner energy U:
Electronic energy                ...   -413.84207509 Eh
Zero point energy                ...      0.07385223 Eh      46.34 kcal/mol
Thermal vibrational correction   ...      0.00296582 Eh       1.86 kcal/mol
Thermal rotational correction    ...      0.00141627 Eh       0.89 kcal/mol
Thermal translational correction ...      0.00141627 Eh       0.89 kcal/mol
-----------------------------------------------------------------------
Total thermal energy                   -413.76242450 Eh


Summary of corrections to the electronic energy:
(perhaps to be used in another calculation)
Total thermal correction                  0.00579836 Eh       3.64 kcal/mol
Non-thermal (ZPE) correction              0.07385223 Eh      46.34 kcal/mol
-----------------------------------------------------------------------
Total correction                          0.07965059 Eh      49.98 kcal/mol


--------
ENTHALPY
--------

The enthalpy is H = U + kB*T
                kB is Boltzmann's constant
Total free energy                 ...   -413.76242450 Eh 
Thermal Enthalpy correction       ...      0.00094421 Eh       0.59 kcal/mol
-----------------------------------------------------------------------
Total Enthalpy                    ...   -413.76148029 Eh


Note: Only C1 symmetry has been detected, increase convergence thresholds 
      if your molecule has a higher symmetry. Symmetry factor of 1.0 is   
      used for the rotational entropy correction. 
 

Note: Rotational entropy computed according to Herzberg 
Infrared and Raman Spectra, Chapter V,1, Van Nostrand Reinhold, 1945 
Point Group:  C1, Symmetry Number:   1  
Rotational constants in cm-1:     0.132801     0.068100     0.045016 

Vibrational entropy computed according to the QRRHO of S. Grimme
Chem.Eur.J. 2012 18 9955


-------
ENTROPY
-------

The entropy contributions are T*S = T*(S(el)+S(vib)+S(rot)+S(trans))
     S(el)   - electronic entropy
     S(vib)  - vibrational entropy
     S(rot)  - rotational entropy
     S(trans)- translational entropy
The entropies will be listed as mutliplied by the temperature to get
units of energy

Electronic entropy                ...      0.00000000 Eh      0.00 kcal/mol
Vibrational entropy               ...      0.00462849 Eh      2.90 kcal/mol
Rotational entropy                ...      0.01319615 Eh      8.28 kcal/mol
Translational entropy             ...      0.01902006 Eh     11.94 kcal/mol
-----------------------------------------------------------------------
Final entropy term                ...      0.03684471 Eh     23.12 kcal/mol

In case the symmetry of your molecule has not been determined correctly
or in case you have a reason to use a different symmetry number we print 
out the resulting rotational entropy values for sn=1,12 :
 --------------------------------------------------------
|  sn= 1 | S(rot)=       0.01319615 Eh      8.28 kcal/mol|
|  sn= 2 | S(rot)=       0.01254169 Eh      7.87 kcal/mol|
|  sn= 3 | S(rot)=       0.01215886 Eh      7.63 kcal/mol|
|  sn= 4 | S(rot)=       0.01188724 Eh      7.46 kcal/mol|
|  sn= 5 | S(rot)=       0.01167655 Eh      7.33 kcal/mol|
|  sn= 6 | S(rot)=       0.01150440 Eh      7.22 kcal/mol|
|  sn= 7 | S(rot)=       0.01135886 Eh      7.13 kcal/mol|
|  sn= 8 | S(rot)=       0.01123278 Eh      7.05 kcal/mol|
|  sn= 9 | S(rot)=       0.01112157 Eh      6.98 kcal/mol|
|  sn=10 | S(rot)=       0.01102209 Eh      6.92 kcal/mol|
|  sn=11 | S(rot)=       0.01093210 Eh      6.86 kcal/mol|
|  sn=12 | S(rot)=       0.01084995 Eh      6.81 kcal/mol|
 --------------------------------------------------------


-------------------
GIBBS FREE ENERGY
-------------------

The Gibbs free energy is G = H - T*S

Total enthalpy                    ...   -413.76148029 Eh 
Total entropy correction          ...     -0.03684471 Eh    -23.12 kcal/mol
-----------------------------------------------------------------------
Final Gibbs free energy         ...   -413.79832500 Eh

For completeness - the Gibbs free energy minus the electronic energy
G-E(el)                           ...      0.04375009 Eh     27.45 kcal/mol


Timings for individual modules:

Sum of individual times         ...      478.654 sec (=   7.978 min)
GTO integral calculation        ...       10.897 sec (=   0.182 min)   2.3 %
SCF iterations                  ...      126.980 sec (=   2.116 min)  26.5 %
SCF Gradient evaluation         ...       59.337 sec (=   0.989 min)  12.4 %
Geometry relaxation             ...        3.499 sec (=   0.058 min)   0.7 %
Analytical frequency calculation...      277.941 sec (=   4.632 min)  58.1 %
                             ****ORCA TERMINATED NORMALLY****
TOTAL RUN TIME: 0 days 0 hours 7 minutes 59 seconds 444 msec
