11
* (null), Energy   -1000.0000000
C     1.356566    0.572472   -0.019574   -0.114211    0.023745   -0.004911
C     1.179217   -0.796685    0.088575   -0.276279   -0.041232   -0.004534
N     0.008210   -1.454494    0.110838    0.378521    0.108047    0.001433
C    -1.131376   -0.714764    0.018532    0.032655   -0.222839    0.019652
N    -0.995238    0.677642   -0.092617   -0.198171   -0.011680   -0.004600
C     0.194158    1.409660   -0.120689    0.277962   -0.020720    0.009351
O    -2.273001   -1.200862    0.028059    0.003527    0.082851   -0.006843
O     0.161758    2.645985   -0.224814   -0.027114    0.033187   -0.003523
H     2.075560   -1.430341    0.165515   -1.123668   -1.203308    0.070304
H    -1.858608    1.212888   -0.161920    0.251932    0.733616   -0.052963
H     2.345944    1.032379   -0.030255   -0.308266    0.399376   -0.041839
11
* Frequency(23) 1316.6231
C     1.343587    0.575170   -0.020132   -0.114211    0.023745   -0.004911
C     1.147819   -0.801370    0.088060   -0.276279   -0.041232   -0.004534
N     0.051227   -1.442215    0.111001    0.378521    0.108047    0.001433
C    -1.127665   -0.740089    0.020765    0.032655   -0.222839    0.019652
N    -1.017759    0.676315   -0.093140   -0.198171   -0.011680   -0.004600
C     0.225747    1.407305   -0.119626    0.277962   -0.020720    0.009351
O    -2.272600   -1.191447    0.027281    0.003527    0.082851   -0.006843
O     0.158677    2.649757   -0.225214   -0.027114    0.033187   -0.003523
H     1.947860   -1.567091    0.173504   -1.123668   -1.203308    0.070304
H    -1.829977    1.296259   -0.167939    0.251932    0.733616   -0.052963
H     2.310911    1.077766   -0.035009   -0.308266    0.399376   -0.041839
11
* Frequency(23) 1316.6231
C     1.332014    0.577576   -0.020629   -0.114211    0.023745   -0.004911
C     1.119824   -0.805548    0.087601   -0.276279   -0.041232   -0.004534
N     0.089582   -1.431267    0.111146    0.378521    0.108047    0.001433
C    -1.124356   -0.762669    0.022756    0.032655   -0.222839    0.019652
N    -1.037840    0.675132   -0.093606   -0.198171   -0.011680   -0.004600
C     0.253912    1.405205   -0.118679    0.277962   -0.020720    0.009351
O    -2.272243   -1.183052    0.026588    0.003527    0.082851   -0.006843
O     0.155929    2.653120   -0.225571   -0.027114    0.033187   -0.003523
H     1.834000   -1.689021    0.180628   -1.123668   -1.203308    0.070304
H    -1.804449    1.370596   -0.173306    0.251932    0.733616   -0.052963
H     2.279675    1.118235   -0.039249   -0.308266    0.399376   -0.041839
11
* Frequency(23) 1316.6231
C     1.323102    0.579429   -0.021013   -0.114211    0.023745   -0.004911
C     1.098265   -0.808766    0.087247   -0.276279   -0.041232   -0.004534
N     0.119120   -1.422836    0.111258    0.378521    0.108047    0.001433
C    -1.121808   -0.780058    0.024290    0.032655   -0.222839    0.019652
N    -1.053304    0.674220   -0.093965   -0.198171   -0.011680   -0.004600
C     0.275603    1.403588   -0.117949    0.277962   -0.020720    0.009351
O    -2.271968   -1.176586    0.026054    0.003527    0.082851   -0.006843
O     0.153813    2.655710   -0.225846   -0.027114    0.033187   -0.003523
H     1.746315   -1.782920    0.186114   -1.123668   -1.203308    0.070304
H    -1.784790    1.427843   -0.177439    0.251932    0.733616   -0.052963
H     2.255620    1.149400   -0.042514   -0.308266    0.399376   -0.041839
11
* Frequency(23) 1316.6231
C     1.317816    0.580528   -0.021240   -0.114211    0.023745   -0.004911
C     1.085478   -0.810674    0.087037   -0.276279   -0.041232   -0.004534
N     0.136638   -1.417835    0.111324    0.378521    0.108047    0.001433
C    -1.120296   -0.790371    0.025200    0.032655   -0.222839    0.019652
N    -1.062476    0.673680   -0.094178   -0.198171   -0.011680   -0.004600
C     0.288467    1.402629   -0.117516    0.277962   -0.020720    0.009351
O    -2.271804   -1.172752    0.025737    0.003527    0.082851   -0.006843
O     0.152559    2.657246   -0.226009   -0.027114    0.033187   -0.003523
H     1.694310   -1.838611    0.189368   -1.123668   -1.203308    0.070304
H    -1.773130    1.461796   -0.179890    0.251932    0.733616   -0.052963
H     2.241353    1.167884   -0.044450   -0.308266    0.399376   -0.041839
11
* Frequency(23) 1316.6231
C     1.316729    0.580754   -0.021287   -0.114211    0.023745   -0.004911
C     1.082850   -0.811067    0.086994   -0.276279   -0.041232   -0.004534
N     0.140240   -1.416807    0.111338    0.378521    0.108047    0.001433
C    -1.119985   -0.792492    0.025386    0.032655   -0.222839    0.019652
N    -1.064361    0.673569   -0.094222   -0.198171   -0.011680   -0.004600
C     0.291112    1.402432   -0.117427    0.277962   -0.020720    0.009351
O    -2.271771   -1.171964    0.025672    0.003527    0.082851   -0.006843
O     0.152301    2.657561   -0.226043   -0.027114    0.033187   -0.003523
H     1.683619   -1.850060    0.190037   -1.123668   -1.203308    0.070304
H    -1.770733    1.468776   -0.180394    0.251932    0.733616   -0.052963
H     2.238420    1.171684   -0.044848   -0.308266    0.399376   -0.041839
11
* Frequency(23) 1316.6231
C     1.319959    0.580083   -0.021148   -0.114211    0.023745   -0.004911
C     1.090664   -0.809900    0.087122   -0.276279   -0.041232   -0.004534
N     0.129534   -1.419863    0.111297    0.378521    0.108047    0.001433
C    -1.120909   -0.786189    0.024831    0.032655   -0.222839    0.019652
N    -1.058756    0.673899   -0.094091   -0.198171   -0.011680   -0.004600
C     0.283250    1.403018   -0.117692    0.277962   -0.020720    0.009351
O    -2.271871   -1.174307    0.025865    0.003527    0.082851   -0.006843
O     0.153068    2.656623   -0.225943   -0.027114    0.033187   -0.003523
H     1.715401   -1.816026    0.188048   -1.123668   -1.203308    0.070304
H    -1.777859    1.448027   -0.178896    0.251932    0.733616   -0.052963
H     2.247139    1.160388   -0.043665   -0.308266    0.399376   -0.041839
11
* Frequency(23) 1316.6231
C     1.327157    0.578586   -0.020838   -0.114211    0.023745   -0.004911
C     1.108074   -0.807302    0.087408   -0.276279   -0.041232   -0.004534
N     0.105680   -1.426672    0.111207    0.378521    0.108047    0.001433
C    -1.122967   -0.772146    0.023592    0.032655   -0.222839    0.019652
N    -1.046268    0.674635   -0.093802   -0.198171   -0.011680   -0.004600
C     0.265734    1.404324   -0.118281    0.277962   -0.020720    0.009351
O    -2.272093   -1.179528    0.026297    0.003527    0.082851   -0.006843
O     0.154776    2.654531   -0.225721   -0.027114    0.033187   -0.003523
H     1.786211   -1.740197    0.183618   -1.123668   -1.203308    0.070304
H    -1.793735    1.401796   -0.175558    0.251932    0.733616   -0.052963
H     2.266565    1.135220   -0.041028   -0.308266    0.399376   -0.041839
11
* Frequency(23) 1316.6231
C     1.337541    0.576427   -0.020392   -0.114211    0.023745   -0.004911
C     1.133194   -0.803553    0.087820   -0.276279   -0.041232   -0.004534
N     0.071265   -1.436496    0.111077    0.378521    0.108047    0.001433
C    -1.125936   -0.751885    0.021805    0.032655   -0.222839    0.019652
N    -1.028250    0.675697   -0.093383   -0.198171   -0.011680   -0.004600
C     0.240461    1.406208   -0.119131    0.277962   -0.020720    0.009351
O    -2.272413   -1.187061    0.026919    0.003527    0.082851   -0.006843
O     0.157241    2.651514   -0.225401   -0.027114    0.033187   -0.003523
H     1.888377   -1.630790    0.177226   -1.123668   -1.203308    0.070304
H    -1.816641    1.335095   -0.170743    0.251932    0.733616   -0.052963
H     2.294593    1.098908   -0.037224   -0.308266    0.399376   -0.041839
11
* Frequency(23) 1316.6231
C     1.349987    0.573840   -0.019857   -0.114211    0.023745   -0.004911
C     1.163301   -0.799060    0.088314   -0.276279   -0.041232   -0.004534
N     0.030016   -1.448270    0.110921    0.378521    0.108047    0.001433
C    -1.129495   -0.727602    0.019664    0.032655   -0.222839    0.019652
N    -1.006655    0.676970   -0.092882   -0.198171   -0.011680   -0.004600
C     0.210170    1.408466   -0.120150    0.277962   -0.020720    0.009351
O    -2.272798   -1.196090    0.027665    0.003527    0.082851   -0.006843
O     0.160196    2.647897   -0.225017   -0.027114    0.033187   -0.003523
H     2.010827   -1.499661    0.169565   -1.123668   -1.203308    0.070304
H    -1.844095    1.255150   -0.164971    0.251932    0.733616   -0.052963
H     2.328186    1.055387   -0.032665   -0.308266    0.399376   -0.041839
11
* Frequency(23) 1316.6231
C     1.363146    0.571104   -0.019291   -0.114211    0.023745   -0.004911
C     1.195133   -0.794309    0.088836   -0.276279   -0.041232   -0.004534
N    -0.013596   -1.460719    0.110755    0.378521    0.108047    0.001433
C    -1.133257   -0.701927    0.017400    0.032655   -0.222839    0.019652
N    -0.983822    0.678315   -0.092352   -0.198171   -0.011680   -0.004600
C     0.178145    1.410853   -0.121228    0.277962   -0.020720    0.009351
O    -2.273204   -1.205635    0.028453    0.003527    0.082851   -0.006843
O     0.163320    2.644074   -0.224611   -0.027114    0.033187   -0.003523
H     2.140292   -1.361020    0.161464   -1.123668   -1.203308    0.070304
H    -1.873121    1.170625   -0.158869    0.251932    0.733616   -0.052963
H     2.363703    1.009372   -0.027844   -0.308266    0.399376   -0.041839
11
* Frequency(23) 1316.6231
C     1.375592    0.568516   -0.018756   -0.114211    0.023745   -0.004911
C     1.225240   -0.789816    0.089331   -0.276279   -0.041232   -0.004534
N    -0.054845   -1.472493    0.110599    0.378521    0.108047    0.001433
C    -1.136815   -0.677643    0.015258    0.032655   -0.222839    0.019652
N    -0.962227    0.679588   -0.091851   -0.198171   -0.011680   -0.004600
C     0.147854    1.413111   -0.122247    0.277962   -0.020720    0.009351
O    -2.273589   -1.214664    0.029199    0.003527    0.082851   -0.006843
O     0.166275    2.640457   -0.224227   -0.027114    0.033187   -0.003523
H     2.262742   -1.229892    0.153803   -1.123668   -1.203308    0.070304
H    -1.900575    1.090681   -0.153098    0.251932    0.733616   -0.052963
H     2.397296    0.965851   -0.023285   -0.308266    0.399376   -0.041839
11
* Frequency(23) 1316.6231
C     1.385976    0.566357   -0.018309   -0.114211    0.023745   -0.004911
C     1.250360   -0.786067    0.089743   -0.276279   -0.041232   -0.004534
N    -0.089260   -1.482317    0.110469    0.378521    0.108047    0.001433
C    -1.139785   -0.657382    0.013471    0.032655   -0.222839    0.019652
N    -0.944209    0.680650   -0.091432   -0.198171   -0.011680   -0.004600
C     0.122582    1.414995   -0.123097    0.277962   -0.020720    0.009351
O    -2.273909   -1.222197    0.029821    0.003527    0.082851   -0.006843
O     0.168740    2.637440   -0.223907   -0.027114    0.033187   -0.003523
H     2.364908   -1.120485    0.147411   -1.123668   -1.203308    0.070304
H    -1.923481    1.023979   -0.148282    0.251932    0.733616   -0.052963
H     2.425324    0.929539   -0.019481   -0.308266    0.399376   -0.041839
11
* Frequency(23) 1316.6231
C     1.393174    0.564861   -0.018000   -0.114211    0.023745   -0.004911
C     1.267770   -0.783469    0.090029   -0.276279   -0.041232   -0.004534
N    -0.113114   -1.489126    0.110379    0.378521    0.108047    0.001433
C    -1.141842   -0.643340    0.012233    0.032655   -0.222839    0.019652
N    -0.931721    0.681386   -0.091142   -0.198171   -0.011680   -0.004600
C     0.105065    1.416301   -0.123686    0.277962   -0.020720    0.009351
O    -2.274132   -1.227418    0.030252    0.003527    0.082851   -0.006843
O     0.170449    2.635348   -0.223685   -0.027114    0.033187   -0.003523
H     2.435718   -1.044656    0.142981   -1.123668   -1.203308    0.070304
H    -1.939358    0.977748   -0.144945    0.251932    0.733616   -0.052963
H     2.444750    0.904371   -0.016845   -0.308266    0.399376   -0.041839
11
* Frequency(23) 1316.6231
C     1.396404    0.564189   -0.017861   -0.114211    0.023745   -0.004911
C     1.275584   -0.782303    0.090157   -0.276279   -0.041232   -0.004534
N    -0.123820   -1.492182    0.110338    0.378521    0.108047    0.001433
C    -1.142766   -0.637037    0.011677    0.032655   -0.222839    0.019652
N    -0.926116    0.681716   -0.091012   -0.198171   -0.011680   -0.004600
C     0.097203    1.416887   -0.123950    0.277962   -0.020720    0.009351
O    -2.274231   -1.229761    0.030446    0.003527    0.082851   -0.006843
O     0.171216    2.634410   -0.223585   -0.027114    0.033187   -0.003523
H     2.467500   -1.010621    0.140992   -1.123668   -1.203308    0.070304
H    -1.946483    0.956999   -0.143447    0.251932    0.733616   -0.052963
H     2.453469    0.893075   -0.015661   -0.308266    0.399376   -0.041839
11
* Frequency(23) 1316.6231
C     1.395317    0.564415   -0.017907   -0.114211    0.023745   -0.004911
C     1.272956   -0.782695    0.090114   -0.276279   -0.041232   -0.004534
N    -0.120218   -1.491154    0.110352    0.378521    0.108047    0.001433
C    -1.142455   -0.639157    0.011864    0.032655   -0.222839    0.019652
N    -0.928001    0.681605   -0.091056   -0.198171   -0.011680   -0.004600
C     0.099848    1.416690   -0.123861    0.277962   -0.020720    0.009351
O    -2.274198   -1.228973    0.030381    0.003527    0.082851   -0.006843
O     0.170958    2.634725   -0.223619   -0.027114    0.033187   -0.003523
H     2.456809   -1.022070    0.141661   -1.123668   -1.203308    0.070304
H    -1.944086    0.963979   -0.143951    0.251932    0.733616   -0.052963
H     2.450536    0.896875   -0.016059   -0.308266    0.399376   -0.041839
11
* Frequency(23) 1316.6231
C     1.390031    0.565514   -0.018135   -0.114211    0.023745   -0.004911
C     1.260169   -0.784603    0.089904   -0.276279   -0.041232   -0.004534
N    -0.102700   -1.486153    0.110418    0.378521    0.108047    0.001433
C    -1.140944   -0.649470    0.012773    0.032655   -0.222839    0.019652
N    -0.937173    0.681065   -0.091269   -0.198171   -0.011680   -0.004600
C     0.112713    1.415731   -0.123429    0.277962   -0.020720    0.009351
O    -2.274034   -1.225138    0.030064    0.003527    0.082851   -0.006843
O     0.169703    2.636261   -0.223782   -0.027114    0.033187   -0.003523
H     2.404804   -1.077761    0.144915   -1.123668   -1.203308    0.070304
H    -1.932426    0.997932   -0.146402    0.251932    0.733616   -0.052963
H     2.436269    0.915359   -0.017996   -0.308266    0.399376   -0.041839
11
* Frequency(23) 1316.6231
C     1.381119    0.567367   -0.018518   -0.114211    0.023745   -0.004911
C     1.238610   -0.787821    0.089550   -0.276279   -0.041232   -0.004534
N    -0.073162   -1.477722    0.110530    0.378521    0.108047    0.001433
C    -1.138396   -0.666859    0.014307    0.032655   -0.222839    0.019652
N    -0.952637    0.680153   -0.091628   -0.198171   -0.011680   -0.004600
C     0.134403    1.414114   -0.122699    0.277962   -0.020720    0.009351
O    -2.273759   -1.218673    0.029530    0.003527    0.082851   -0.006843
O     0.167587    2.638851   -0.224057   -0.027114    0.033187   -0.003523
H     2.317119   -1.171660    0.150401   -1.123668   -1.203308    0.070304
H    -1.912767    1.055179   -0.150535    0.251932    0.733616   -0.052963
H     2.412214    0.946524   -0.021260   -0.308266    0.399376   -0.041839
11
* Frequency(23) 1316.6231
C     1.369546    0.569773   -0.019016   -0.114211    0.023745   -0.004911
C     1.210615   -0.791999    0.089091   -0.276279   -0.041232   -0.004534
N    -0.034807   -1.466773    0.110675    0.378521    0.108047    0.001433
C    -1.135087   -0.689440    0.016298    0.032655   -0.222839    0.019652
N    -0.972717    0.678970   -0.092094   -0.198171   -0.011680   -0.004600
C     0.162569    1.412014   -0.121752    0.277962   -0.020720    0.009351
O    -2.273402   -1.210278    0.028836    0.003527    0.082851   -0.006843
O     0.164840    2.642214   -0.224414   -0.027114    0.033187   -0.003523
H     2.203259   -1.293591    0.157525   -1.123668   -1.203308    0.070304
H    -1.887239    1.129516   -0.155901    0.251932    0.733616   -0.052963
H     2.380977    0.986992   -0.025500   -0.308266    0.399376   -0.041839
11
* Frequency(23) 1316.6231
C     1.356566    0.572472   -0.019574   -0.114211    0.023745   -0.004911
C     1.179217   -0.796685    0.088575   -0.276279   -0.041232   -0.004534
N     0.008210   -1.454494    0.110838    0.378521    0.108047    0.001433
C    -1.131376   -0.714764    0.018532    0.032655   -0.222839    0.019652
N    -0.995238    0.677642   -0.092617   -0.198171   -0.011680   -0.004600
C     0.194158    1.409660   -0.120689    0.277962   -0.020720    0.009351
O    -2.273001   -1.200862    0.028059    0.003527    0.082851   -0.006843
O     0.161758    2.645985   -0.224814   -0.027114    0.033187   -0.003523
H     2.075560   -1.430341    0.165515   -1.123668   -1.203308    0.070304
H    -1.858608    1.212888   -0.161920    0.251932    0.733616   -0.052963
H     2.345944    1.032379   -0.030255   -0.308266    0.399376   -0.041839
