11
* (null), Energy   -1000.0000000
C     1.356566    0.572472   -0.019574   -0.135356   -0.168472    0.010012
C     1.179217   -0.796685    0.088575   -0.053448    0.153028   -0.013992
N     0.008210   -1.454494    0.110838    0.198393    0.102162   -0.003030
C    -1.131376   -0.714764    0.018532    0.008909   -0.071145    0.006251
N    -0.995238    0.677642   -0.092617   -0.060740    0.052512   -0.006093
C     0.194158    1.409660   -0.120689    0.049057    0.004619    0.000847
O    -2.273001   -1.200862    0.028059   -0.062515    0.011930   -0.002697
O     0.161758    2.645985   -0.224814   -0.017580   -0.037317    0.002643
H     2.075560   -1.430341    0.165515    0.344681    0.718268   -0.050757
H    -1.858608    1.212888   -0.161920    0.027216    0.201981   -0.015324
H     2.345944    1.032379   -0.030255    0.545580   -1.689921    0.156557
11
* Frequency(21) 1093.1362
C     1.341184    0.553326   -0.018436   -0.135356   -0.168472    0.010012
C     1.173143   -0.779294    0.086985   -0.053448    0.153028   -0.013992
N     0.030756   -1.442884    0.110494    0.198393    0.102162   -0.003030
C    -1.130363   -0.722849    0.019242    0.008909   -0.071145    0.006251
N    -1.002141    0.683610   -0.093309   -0.060740    0.052512   -0.006093
C     0.199733    1.410185   -0.120593    0.049057    0.004619    0.000847
O    -2.280105   -1.199507    0.027752   -0.062515    0.011930   -0.002697
O     0.159760    2.641745   -0.224514   -0.017580   -0.037317    0.002643
H     2.114731   -1.348713    0.159746    0.344681    0.718268   -0.050757
H    -1.855515    1.235842   -0.163662    0.027216    0.201981   -0.015324
H     2.407947    0.840329   -0.012463    0.545580   -1.689921    0.156557
11
* Frequency(21) 1093.1362
C     1.327468    0.536255   -0.017421   -0.135356   -0.168472    0.010012
C     1.167727   -0.763787    0.085567   -0.053448    0.153028   -0.013992
N     0.050859   -1.432532    0.110187    0.198393    0.102162   -0.003030
C    -1.129461   -0.730058    0.019875    0.008909   -0.071145    0.006251
N    -1.008296    0.688931   -0.093927   -0.060740    0.052512   -0.006093
C     0.204704    1.410653   -0.120507    0.049057    0.004619    0.000847
O    -2.286440   -1.198298    0.027479   -0.062515    0.011930   -0.002697
O     0.157979    2.637963   -0.224246   -0.017580   -0.037317    0.002643
H     2.149657   -1.275932    0.154603    0.344681    0.718268   -0.050757
H    -1.852757    1.256308   -0.165215    0.027216    0.201981   -0.015324
H     2.463230    0.669090    0.003401    0.545580   -1.689921    0.156557
11
* Frequency(21) 1093.1362
C     1.316906    0.523108   -0.016640   -0.135356   -0.168472    0.010012
C     1.163556   -0.751846    0.084476   -0.053448    0.153028   -0.013992
N     0.066341   -1.424560    0.109950    0.198393    0.102162   -0.003030
C    -1.128765   -0.735610    0.020363    0.008909   -0.071145    0.006251
N    -1.013036    0.693029   -0.094402   -0.060740    0.052512   -0.006093
C     0.208532    1.411013   -0.120441    0.049057    0.004619    0.000847
O    -2.291318   -1.197367    0.027268   -0.062515    0.011930   -0.002697
O     0.156607    2.635051   -0.224040   -0.017580   -0.037317    0.002643
H     2.176554   -1.219882    0.150642    0.344681    0.718268   -0.050757
H    -1.850634    1.272070   -0.166410    0.027216    0.201981   -0.015324
H     2.505804    0.537219    0.015618    0.545580   -1.689921    0.156557
11
* Frequency(21) 1093.1362
C     1.310641    0.515311   -0.016177   -0.135356   -0.168472    0.010012
C     1.161083   -0.744764    0.083828   -0.053448    0.153028   -0.013992
N     0.075523   -1.419832    0.109810    0.198393    0.102162   -0.003030
C    -1.128353   -0.738903    0.020653    0.008909   -0.071145    0.006251
N    -1.015847    0.695459   -0.094684   -0.060740    0.052512   -0.006093
C     0.210802    1.411227   -0.120402    0.049057    0.004619    0.000847
O    -2.294212   -1.196815    0.027144   -0.062515    0.011930   -0.002697
O     0.155794    2.633324   -0.223917   -0.017580   -0.037317    0.002643
H     2.192506   -1.186640    0.148293    0.344681    0.718268   -0.050757
H    -1.849374    1.281418   -0.167120    0.027216    0.201981   -0.015324
H     2.531054    0.459006    0.022864    0.545580   -1.689921    0.156557
11
* Frequency(21) 1093.1362
C     1.309354    0.513708   -0.016082   -0.135356   -0.168472    0.010012
C     1.160574   -0.743308    0.083695   -0.053448    0.153028   -0.013992
N     0.077411   -1.418860    0.109781    0.198393    0.102162   -0.003030
C    -1.128268   -0.739580    0.020712    0.008909   -0.071145    0.006251
N    -1.016425    0.695959   -0.094742   -0.060740    0.052512   -0.006093
C     0.211269    1.411271   -0.120394    0.049057    0.004619    0.000847
O    -2.294806   -1.196701    0.027118   -0.062515    0.011930   -0.002697
O     0.155626    2.632969   -0.223892   -0.017580   -0.037317    0.002643
H     2.195786   -1.179806    0.147810    0.344681    0.718268   -0.050757
H    -1.849115    1.283339   -0.167265    0.027216    0.201981   -0.015324
H     2.536245    0.442927    0.024353    0.545580   -1.689921    0.156557
11
* Frequency(21) 1093.1362
C     1.313182    0.518473   -0.016365   -0.135356   -0.168472    0.010012
C     1.162086   -0.747636    0.084091   -0.053448    0.153028   -0.013992
N     0.071799   -1.421749    0.109867    0.198393    0.102162   -0.003030
C    -1.128520   -0.737568    0.020535    0.008909   -0.071145    0.006251
N    -1.014707    0.694474   -0.094570   -0.060740    0.052512   -0.006093
C     0.209881    1.411140   -0.120418    0.049057    0.004619    0.000847
O    -2.293038   -1.197038    0.027194   -0.062515    0.011930   -0.002697
O     0.156123    2.634025   -0.223967   -0.017580   -0.037317    0.002643
H     2.186037   -1.200121    0.149246    0.344681    0.718268   -0.050757
H    -1.849885    1.277627   -0.166832    0.027216    0.201981   -0.015324
H     2.520814    0.490725    0.019925    0.545580   -1.689921    0.156557
11
* Frequency(21) 1093.1362
C     1.321712    0.529090   -0.016996   -0.135356   -0.168472    0.010012
C     1.165454   -0.757279    0.084972   -0.053448    0.153028   -0.013992
N     0.059297   -1.428187    0.110058    0.198393    0.102162   -0.003030
C    -1.129082   -0.733084    0.020141    0.008909   -0.071145    0.006251
N    -1.010879    0.691164   -0.094186   -0.060740    0.052512   -0.006093
C     0.206790    1.410849   -0.120471    0.049057    0.004619    0.000847
O    -2.289099   -1.197790    0.027364   -0.062515    0.011930   -0.002697
O     0.157231    2.636376   -0.224133   -0.017580   -0.037317    0.002643
H     2.164316   -1.245384    0.152444    0.344681    0.718268   -0.050757
H    -1.851600    1.264898   -0.165866    0.027216    0.201981   -0.015324
H     2.486433    0.597219    0.010059    0.545580   -1.689921    0.156557
11
* Frequency(21) 1093.1362
C     1.334019    0.544407   -0.017906   -0.135356   -0.168472    0.010012
C     1.170314   -0.771193    0.086245   -0.053448    0.153028   -0.013992
N     0.041259   -1.437476    0.110333    0.198393    0.102162   -0.003030
C    -1.129892   -0.726616    0.019573    0.008909   -0.071145    0.006251
N    -1.005356    0.686390   -0.093632   -0.060740    0.052512   -0.006093
C     0.202330    1.410429   -0.120548    0.049057    0.004619    0.000847
O    -2.283415   -1.198875    0.027609   -0.062515    0.011930   -0.002697
O     0.158830    2.639769   -0.224374   -0.017580   -0.037317    0.002643
H     2.132977   -1.310691    0.157059    0.344681    0.718268   -0.050757
H    -1.854074    1.246534   -0.164473    0.027216    0.201981   -0.015324
H     2.436828    0.750870   -0.004175    0.545580   -1.689921    0.156557
11
* Frequency(21) 1093.1362
C     1.348769    0.562766   -0.018997   -0.135356   -0.168472    0.010012
C     1.176138   -0.787869    0.087769   -0.053448    0.153028   -0.013992
N     0.019639   -1.448609    0.110663    0.198393    0.102162   -0.003030
C    -1.130863   -0.718863    0.018892    0.008909   -0.071145    0.006251
N    -0.998737    0.680668   -0.092968   -0.060740    0.052512   -0.006093
C     0.196984    1.409926   -0.120640    0.049057    0.004619    0.000847
O    -2.276602   -1.200175    0.027903   -0.062515    0.011930   -0.002697
O     0.160745    2.643836   -0.224662   -0.017580   -0.037317    0.002643
H     2.095416   -1.388963    0.162591    0.344681    0.718268   -0.050757
H    -1.857040    1.224523   -0.162803    0.027216    0.201981   -0.015324
H     2.377374    0.935026   -0.021236    0.545580   -1.689921    0.156557
11
* Frequency(21) 1093.1362
C     1.364364    0.582177   -0.020150   -0.135356   -0.168472    0.010012
C     1.182296   -0.805500    0.089381   -0.053448    0.153028   -0.013992
N    -0.003219   -1.460380    0.111013    0.198393    0.102162   -0.003030
C    -1.131889   -0.710666    0.018172    0.008909   -0.071145    0.006251
N    -0.991739    0.674617   -0.092266   -0.060740    0.052512   -0.006093
C     0.191332    1.409393   -0.120738    0.049057    0.004619    0.000847
O    -2.269400   -1.201550    0.028214   -0.062515    0.011930   -0.002697
O     0.162771    2.648135   -0.224966   -0.017580   -0.037317    0.002643
H     2.055703   -1.471719    0.168439    0.344681    0.718268   -0.050757
H    -1.860176    1.201252   -0.161037    0.027216    0.201981   -0.015324
H     2.314515    1.129732   -0.039274    0.545580   -1.689921    0.156557
11
* Frequency(21) 1093.1362
C     1.379114    0.600536   -0.021241   -0.135356   -0.168472    0.010012
C     1.188121   -0.822176    0.090906   -0.053448    0.153028   -0.013992
N    -0.024839   -1.471513    0.111343    0.198393    0.102162   -0.003030
C    -1.132860   -0.702913    0.017490    0.008909   -0.071145    0.006251
N    -0.985120    0.668895   -0.091602   -0.060740    0.052512   -0.006093
C     0.185986    1.408890   -0.120830    0.049057    0.004619    0.000847
O    -2.262587   -1.202850    0.028508   -0.062515    0.011930   -0.002697
O     0.164687    2.652202   -0.225254   -0.017580   -0.037317    0.002643
H     2.018142   -1.549991    0.173970    0.344681    0.718268   -0.050757
H    -1.863142    1.179241   -0.159367    0.027216    0.201981   -0.015324
H     2.255061    1.313889   -0.056334    0.545580   -1.689921    0.156557
11
* Frequency(21) 1093.1362
C     1.391421    0.615854   -0.022152   -0.135356   -0.168472    0.010012
C     1.192980   -0.836090    0.092178   -0.053448    0.153028   -0.013992
N    -0.042877   -1.480801    0.111618    0.198393    0.102162   -0.003030
C    -1.133670   -0.696444    0.016922    0.008909   -0.071145    0.006251
N    -0.979598    0.664120   -0.091048   -0.060740    0.052512   -0.006093
C     0.181525    1.408470   -0.120907    0.049057    0.004619    0.000847
O    -2.256903   -1.203935    0.028753   -0.062515    0.011930   -0.002697
O     0.166285    2.655595   -0.225495   -0.017580   -0.037317    0.002643
H     1.986803   -1.615297    0.178585    0.344681    0.718268   -0.050757
H    -1.865616    1.160877   -0.157974    0.027216    0.201981   -0.015324
H     2.205456    1.467540   -0.070569    0.545580   -1.689921    0.156557
11
* Frequency(21) 1093.1362
C     1.399951    0.626471   -0.022783   -0.135356   -0.168472    0.010012
C     1.196348   -0.845733    0.093060   -0.053448    0.153028   -0.013992
N    -0.055379   -1.487239    0.111809    0.198393    0.102162   -0.003030
C    -1.134231   -0.691961    0.016528    0.008909   -0.071145    0.006251
N    -0.975770    0.660811   -0.090664   -0.060740    0.052512   -0.006093
C     0.178434    1.408179   -0.120960    0.049057    0.004619    0.000847
O    -2.252964   -1.204686    0.028923   -0.062515    0.011930   -0.002697
O     0.167393    2.657946   -0.225661   -0.017580   -0.037317    0.002643
H     1.965082   -1.660560    0.181783    0.344681    0.718268   -0.050757
H    -1.867331    1.148149   -0.157008    0.027216    0.201981   -0.015324
H     2.171075    1.574034   -0.080434    0.545580   -1.689921    0.156557
11
* Frequency(21) 1093.1362
C     1.403779    0.631236   -0.023066   -0.135356   -0.168472    0.010012
C     1.197860   -0.850062    0.093456   -0.053448    0.153028   -0.013992
N    -0.060991   -1.490129    0.111895    0.198393    0.102162   -0.003030
C    -1.134483   -0.689949    0.016351    0.008909   -0.071145    0.006251
N    -0.974052    0.659326   -0.090492   -0.060740    0.052512   -0.006093
C     0.177046    1.408048   -0.120984    0.049057    0.004619    0.000847
O    -2.251196   -1.205024    0.029000   -0.062515    0.011930   -0.002697
O     0.167890    2.659002   -0.225736   -0.017580   -0.037317    0.002643
H     1.955333   -1.680876    0.183219    0.344681    0.718268   -0.050757
H    -1.868101    1.142436   -0.156575    0.027216    0.201981   -0.015324
H     2.155644    1.621831   -0.084862    0.545580   -1.689921    0.156557
11
* Frequency(21) 1093.1362
C     1.402492    0.629633   -0.022970   -0.135356   -0.168472    0.010012
C     1.197352   -0.848606    0.093322   -0.053448    0.153028   -0.013992
N    -0.059103   -1.489157    0.111866    0.198393    0.102162   -0.003030
C    -1.134399   -0.690625    0.016411    0.008909   -0.071145    0.006251
N    -0.974630    0.659826   -0.090550   -0.060740    0.052512   -0.006093
C     0.177513    1.408092   -0.120976    0.049057    0.004619    0.000847
O    -2.251790   -1.204910    0.028974   -0.062515    0.011930   -0.002697
O     0.167723    2.658647   -0.225711   -0.017580   -0.037317    0.002643
H     1.958613   -1.674042    0.182736    0.344681    0.718268   -0.050757
H    -1.867842    1.144358   -0.156721    0.027216    0.201981   -0.015324
H     2.160835    1.605753   -0.083373    0.545580   -1.689921    0.156557
11
* Frequency(21) 1093.1362
C     1.396227    0.621835   -0.022507   -0.135356   -0.168472    0.010012
C     1.194878   -0.841523    0.092675   -0.053448    0.153028   -0.013992
N    -0.049921   -1.484429    0.111726    0.198393    0.102162   -0.003030
C    -1.133986   -0.693918    0.016700    0.008909   -0.071145    0.006251
N    -0.977441    0.662256   -0.090832   -0.060740    0.052512   -0.006093
C     0.179783    1.408306   -0.120937    0.049057    0.004619    0.000847
O    -2.254684   -1.204358    0.028849   -0.062515    0.011930   -0.002697
O     0.166909    2.656920   -0.225588   -0.017580   -0.037317    0.002643
H     1.974565   -1.640799    0.180387    0.344681    0.718268   -0.050757
H    -1.866583    1.153706   -0.157430    0.027216    0.201981   -0.015324
H     2.186085    1.527540   -0.076127    0.545580   -1.689921    0.156557
11
* Frequency(21) 1093.1362
C     1.385665    0.608689   -0.021726   -0.135356   -0.168472    0.010012
C     1.190707   -0.829582    0.091583   -0.053448    0.153028   -0.013992
N    -0.034440   -1.476456    0.111489    0.198393    0.102162   -0.003030
C    -1.133291   -0.699470    0.017188    0.008909   -0.071145    0.006251
N    -0.982181    0.666354   -0.091307   -0.060740    0.052512   -0.006093
C     0.183612    1.408667   -0.120871    0.049057    0.004619    0.000847
O    -2.259562   -1.203427    0.028639   -0.062515    0.011930   -0.002697
O     0.165537    2.654008   -0.225382   -0.017580   -0.037317    0.002643
H     2.001462   -1.584750    0.176426    0.344681    0.718268   -0.050757
H    -1.864459    1.169467   -0.158626    0.027216    0.201981   -0.015324
H     2.228659    1.395669   -0.063910    0.545580   -1.689921    0.156557
11
* Frequency(21) 1093.1362
C     1.371949    0.591618   -0.020711   -0.135356   -0.168472    0.010012
C     1.185291   -0.814076    0.090165   -0.053448    0.153028   -0.013992
N    -0.014336   -1.466104    0.111182    0.198393    0.102162   -0.003030
C    -1.132388   -0.706679    0.017821    0.008909   -0.071145    0.006251
N    -0.988336    0.671675   -0.091925   -0.060740    0.052512   -0.006093
C     0.188582    1.409135   -0.120785    0.049057    0.004619    0.000847
O    -2.265897   -1.202218    0.028365   -0.062515    0.011930   -0.002697
O     0.163756    2.650226   -0.225114   -0.017580   -0.037317    0.002643
H     2.036388   -1.511968    0.171283    0.344681    0.718268   -0.050757
H    -1.861701    1.189934   -0.160179    0.027216    0.201981   -0.015324
H     2.283942    1.224430   -0.048047    0.545580   -1.689921    0.156557
11
* Frequency(21) 1093.1362
C     1.356566    0.572472   -0.019574   -0.135356   -0.168472    0.010012
C     1.179217   -0.796685    0.088575   -0.053448    0.153028   -0.013992
N     0.008210   -1.454494    0.110838    0.198393    0.102162   -0.003030
C    -1.131376   -0.714764    0.018532    0.008909   -0.071145    0.006251
N    -0.995238    0.677642   -0.092617   -0.060740    0.052512   -0.006093
C     0.194158    1.409660   -0.120689    0.049057    0.004619    0.000847
O    -2.273001   -1.200862    0.028059   -0.062515    0.011930   -0.002697
O     0.161758    2.645985   -0.224814   -0.017580   -0.037317    0.002643
H     2.075560   -1.430341    0.165515    0.344681    0.718268   -0.050757
H    -1.858608    1.212888   -0.161920    0.027216    0.201981   -0.015324
H     2.345944    1.032379   -0.030255    0.545580   -1.689921    0.156557
