11
* (null), Energy   -1000.0000000
C     1.356566    0.572472   -0.019574    0.001052   -0.000932    0.000106
C     1.179217   -0.796685    0.088575    0.000328   -0.000337    0.000040
N     0.008210   -1.454494    0.110838    0.001417   -0.000667    0.000094
C    -1.131376   -0.714764    0.018532   -0.001240   -0.002072    0.000132
N    -0.995238    0.677642   -0.092617   -0.124852    0.076839   -0.009965
C     0.194158    1.409660   -0.120689    0.001444    0.001910   -0.000118
O    -2.273001   -1.200862    0.028059    0.000015   -0.000036   -0.000003
O     0.161758    2.645985   -0.224814   -0.000009   -0.000041   -0.000005
H     2.075560   -1.430341    0.165515   -0.001687    0.001144   -0.000130
H    -1.858608    1.212888   -0.161920    1.694832   -1.042855    0.135545
H     2.345944    1.032379   -0.030255    0.003117    0.001508   -0.000037
11
* Frequency(32) 3573.4314
C     1.356686    0.572366   -0.019562    0.001052   -0.000932    0.000106
C     1.179254   -0.796723    0.088580    0.000328   -0.000337    0.000040
N     0.008371   -1.454570    0.110849    0.001417   -0.000667    0.000094
C    -1.131517   -0.715000    0.018547   -0.001240   -0.002072    0.000132
N    -1.009427    0.686375   -0.093749   -0.124852    0.076839   -0.009965
C     0.194322    1.409877   -0.120702    0.001444    0.001910   -0.000118
O    -2.272999   -1.200866    0.028059    0.000015   -0.000036   -0.000003
O     0.161757    2.645981   -0.224815   -0.000009   -0.000041   -0.000005
H     2.075368   -1.430211    0.165500   -0.001687    0.001144   -0.000130
H    -1.665999    1.094373   -0.146516    1.694832   -1.042855    0.135545
H     2.346299    1.032551   -0.030259    0.003117    0.001508   -0.000037
11
* Frequency(32) 3573.4314
C     1.356793    0.572271   -0.019551    0.001052   -0.000932    0.000106
C     1.179288   -0.796757    0.088584    0.000328   -0.000337    0.000040
N     0.008515   -1.454638    0.110858    0.001417   -0.000667    0.000094
C    -1.131642   -0.715210    0.018560   -0.001240   -0.002072    0.000132
N    -1.022078    0.694161   -0.094759   -0.124852    0.076839   -0.009965
C     0.194468    1.410070   -0.120714    0.001444    0.001910   -0.000118
O    -2.272998   -1.200870    0.028058    0.000015   -0.000036   -0.000003
O     0.161756    2.645977   -0.224815   -0.000009   -0.000041   -0.000005
H     2.075197   -1.430095    0.165487   -0.001687    0.001144   -0.000130
H    -1.494262    0.988700   -0.132781    1.694832   -1.042855    0.135545
H     2.346614    1.032703   -0.030263    0.003117    0.001508   -0.000037
11
* Frequency(32) 3573.4314
C     1.356875    0.572199   -0.019543    0.001052   -0.000932    0.000106
C     1.179313   -0.796783    0.088587    0.000328   -0.000337    0.000040
N     0.008625   -1.454690    0.110866    0.001417   -0.000667    0.000094
C    -1.131739   -0.715371    0.018570   -0.001240   -0.002072    0.000132
N    -1.031821    0.700157   -0.095537   -0.124852    0.076839   -0.009965
C     0.194581    1.410219   -0.120723    0.001444    0.001910   -0.000118
O    -2.272997   -1.200873    0.028058    0.000015   -0.000036   -0.000003
O     0.161756    2.645974   -0.224816   -0.000009   -0.000041   -0.000005
H     2.075065   -1.430005    0.165476   -0.001687    0.001144   -0.000130
H    -1.362008    0.907322   -0.122204    1.694832   -1.042855    0.135545
H     2.346858    1.032821   -0.030265    0.003117    0.001508   -0.000037
11
* Frequency(32) 3573.4314
C     1.356923    0.572155   -0.019538    0.001052   -0.000932    0.000106
C     1.179328   -0.796799    0.088589    0.000328   -0.000337    0.000040
N     0.008691   -1.454721    0.110870    0.001417   -0.000667    0.000094
C    -1.131796   -0.715467    0.018576   -0.001240   -0.002072    0.000132
N    -1.037599    0.703713   -0.095998   -0.124852    0.076839   -0.009965
C     0.194648    1.410308   -0.120729    0.001444    0.001910   -0.000118
O    -2.272996   -1.200875    0.028058    0.000015   -0.000036   -0.000003
O     0.161755    2.645972   -0.224816   -0.000009   -0.000041   -0.000005
H     2.074987   -1.429952    0.165470   -0.001687    0.001144   -0.000130
H    -1.283568    0.859057   -0.115931    1.694832   -1.042855    0.135545
H     2.347002    1.032891   -0.030267    0.003117    0.001508   -0.000037
11
* Frequency(32) 3573.4314
C     1.356933    0.572147   -0.019537    0.001052   -0.000932    0.000106
C     1.179331   -0.796802    0.088589    0.000328   -0.000337    0.000040
N     0.008704   -1.454727    0.110871    0.001417   -0.000667    0.000094
C    -1.131808   -0.715487    0.018578   -0.001240   -0.002072    0.000132
N    -1.038787    0.704444   -0.096093   -0.124852    0.076839   -0.009965
C     0.194661    1.410326   -0.120730    0.001444    0.001910   -0.000118
O    -2.272996   -1.200875    0.028058    0.000015   -0.000036   -0.000003
O     0.161755    2.645971   -0.224816   -0.000009   -0.000041   -0.000005
H     2.074971   -1.429942    0.165469   -0.001687    0.001144   -0.000130
H    -1.267443    0.849135   -0.114641    1.694832   -1.042855    0.135545
H     2.347032    1.032905   -0.030268    0.003117    0.001508   -0.000037
11
* Frequency(32) 3573.4314
C     1.356904    0.572173   -0.019540    0.001052   -0.000932    0.000106
C     1.179322   -0.796793    0.088588    0.000328   -0.000337    0.000040
N     0.008664   -1.454708    0.110868    0.001417   -0.000667    0.000094
C    -1.131773   -0.715428    0.018574   -0.001240   -0.002072    0.000132
N    -1.035256    0.702271   -0.095811   -0.124852    0.076839   -0.009965
C     0.194620    1.410272   -0.120727    0.001444    0.001910   -0.000118
O    -2.272996   -1.200874    0.028058    0.000015   -0.000036   -0.000003
O     0.161755    2.645972   -0.224816   -0.000009   -0.000041   -0.000005
H     2.075019   -1.429974    0.165473   -0.001687    0.001144   -0.000130
H    -1.315379    0.878631   -0.118475    1.694832   -1.042855    0.135545
H     2.346944    1.032863   -0.030266    0.003117    0.001508   -0.000037
11
* Frequency(32) 3573.4314
C     1.356837    0.572232   -0.019546    0.001052   -0.000932    0.000106
C     1.179301   -0.796771    0.088586    0.000328   -0.000337    0.000040
N     0.008575   -1.454666    0.110862    0.001417   -0.000667    0.000094
C    -1.131695   -0.715298    0.018566   -0.001240   -0.002072    0.000132
N    -1.027388    0.697429   -0.095183   -0.124852    0.076839   -0.009965
C     0.194529    1.410151   -0.120719    0.001444    0.001910   -0.000118
O    -2.272997   -1.200872    0.028058    0.000015   -0.000036   -0.000003
O     0.161756    2.645975   -0.224815   -0.000009   -0.000041   -0.000005
H     2.075125   -1.430046    0.165481   -0.001687    0.001144   -0.000130
H    -1.422183    0.944349   -0.127017    1.694832   -1.042855    0.135545
H     2.346747    1.032768   -0.030264    0.003117    0.001508   -0.000037
11
* Frequency(32) 3573.4314
C     1.356742    0.572316   -0.019556    0.001052   -0.000932    0.000106
C     1.179272   -0.796741    0.088582    0.000328   -0.000337    0.000040
N     0.008446   -1.454605    0.110854    0.001417   -0.000667    0.000094
C    -1.131582   -0.715109    0.018554   -0.001240   -0.002072    0.000132
N    -1.016036    0.690442   -0.094277   -0.124852    0.076839   -0.009965
C     0.194398    1.409978   -0.120709    0.001444    0.001910   -0.000118
O    -2.272999   -1.200868    0.028058    0.000015   -0.000036   -0.000003
O     0.161757    2.645979   -0.224815   -0.000009   -0.000041   -0.000005
H     2.075279   -1.430150    0.165493   -0.001687    0.001144   -0.000130
H    -1.576280    1.039167   -0.139341    1.694832   -1.042855    0.135545
H     2.346464    1.032630   -0.030261    0.003117    0.001508   -0.000037
11
* Frequency(32) 3573.4314
C     1.356627    0.572418   -0.019568    0.001052   -0.000932    0.000106
C     1.179236   -0.796704    0.088578    0.000328   -0.000337    0.000040
N     0.008292   -1.454533    0.110843    0.001417   -0.000667    0.000094
C    -1.131447   -0.714884    0.018539   -0.001240   -0.002072    0.000132
N    -1.002431    0.682069   -0.093191   -0.124852    0.076839   -0.009965
C     0.194241    1.409770   -0.120696    0.001444    0.001910   -0.000118
O    -2.273000   -1.200864    0.028059    0.000015   -0.000036   -0.000003
O     0.161758    2.645983   -0.224814   -0.000009   -0.000041   -0.000005
H     2.075462   -1.430275    0.165507   -0.001687    0.001144   -0.000130
H    -1.760972    1.152811   -0.154112    1.694832   -1.042855    0.135545
H     2.346124    1.032466   -0.030257    0.003117    0.001508   -0.000037
11
* Frequency(32) 3573.4314
C     1.356506    0.572525   -0.019580    0.001052   -0.000932    0.000106
C     1.179198   -0.796665    0.088573    0.000328   -0.000337    0.000040
N     0.008128   -1.454456    0.110833    0.001417   -0.000667    0.000094
C    -1.131304   -0.714645    0.018524   -0.001240   -0.002072    0.000132
N    -0.988046    0.673216   -0.092043   -0.124852    0.076839   -0.009965
C     0.194074    1.409550   -0.120682    0.001444    0.001910   -0.000118
O    -2.273002   -1.200860    0.028059    0.000015   -0.000036   -0.000003
O     0.161759    2.645988   -0.224814   -0.000009   -0.000041   -0.000005
H     2.075657   -1.430407    0.165522   -0.001687    0.001144   -0.000130
H    -1.956244    1.272965   -0.169729    1.694832   -1.042855    0.135545
H     2.345765    1.032292   -0.030253    0.003117    0.001508   -0.000037
11
* Frequency(32) 3573.4314
C     1.356391    0.572627   -0.019591    0.001052   -0.000932    0.000106
C     1.179163   -0.796629    0.088569    0.000328   -0.000337    0.000040
N     0.007974   -1.454383    0.110822    0.001417   -0.000667    0.000094
C    -1.131169   -0.714419    0.018510   -0.001240   -0.002072    0.000132
N    -0.974440    0.664843   -0.090957   -0.124852    0.076839   -0.009965
C     0.193917    1.409341   -0.120669    0.001444    0.001910   -0.000118
O    -2.273004   -1.200856    0.028059    0.000015   -0.000036   -0.000003
O     0.161760    2.645992   -0.224813   -0.000009   -0.000041   -0.000005
H     2.075840   -1.430531    0.165536   -0.001687    0.001144   -0.000130
H    -2.140936    1.386608   -0.184499    1.694832   -1.042855    0.135545
H     2.345425    1.032128   -0.030248    0.003117    0.001508   -0.000037
11
* Frequency(32) 3573.4314
C     1.356296    0.572712   -0.019601    0.001052   -0.000932    0.000106
C     1.179133   -0.796598    0.088565    0.000328   -0.000337    0.000040
N     0.007845   -1.454322    0.110814    0.001417   -0.000667    0.000094
C    -1.131057   -0.714231    0.018498   -0.001240   -0.002072    0.000132
N    -0.963088    0.657856   -0.090051   -0.124852    0.076839   -0.009965
C     0.193786    1.409168   -0.120658    0.001444    0.001910   -0.000118
O    -2.273005   -1.200853    0.028059    0.000015   -0.000036   -0.000003
O     0.161760    2.645996   -0.224813   -0.000009   -0.000041   -0.000005
H     2.075994   -1.430635    0.165548   -0.001687    0.001144   -0.000130
H    -2.295033    1.481426   -0.196823    1.694832   -1.042855    0.135545
H     2.345142    1.031991   -0.030245    0.003117    0.001508   -0.000037
11
* Frequency(32) 3573.4314
C     1.356229    0.572771   -0.019608    0.001052   -0.000932    0.000106
C     1.179112   -0.796577    0.088562    0.000328   -0.000337    0.000040
N     0.007756   -1.454280    0.110808    0.001417   -0.000667    0.000094
C    -1.130978   -0.714100    0.018489   -0.001240   -0.002072    0.000132
N    -0.955221    0.653014   -0.089423   -0.124852    0.076839   -0.009965
C     0.193695    1.409047   -0.120651    0.001444    0.001910   -0.000118
O    -2.273006   -1.200851    0.028060    0.000015   -0.000036   -0.000003
O     0.161761    2.645998   -0.224812   -0.000009   -0.000041   -0.000005
H     2.076100   -1.430708    0.165556   -0.001687    0.001144   -0.000130
H    -2.401837    1.547144   -0.205365    1.694832   -1.042855    0.135545
H     2.344945    1.031896   -0.030243    0.003117    0.001508   -0.000037
11
* Frequency(32) 3573.4314
C     1.356200    0.572797   -0.019611    0.001052   -0.000932    0.000106
C     1.179103   -0.796567    0.088561    0.000328   -0.000337    0.000040
N     0.007716   -1.454261    0.110805    0.001417   -0.000667    0.000094
C    -1.130943   -0.714041    0.018486   -0.001240   -0.002072    0.000132
N    -0.951689    0.650841   -0.089141   -0.124852    0.076839   -0.009965
C     0.193654    1.408993   -0.120648    0.001444    0.001910   -0.000118
O    -2.273006   -1.200850    0.028060    0.000015   -0.000036   -0.000003
O     0.161761    2.646000   -0.224812   -0.000009   -0.000041   -0.000005
H     2.076148   -1.430740    0.165560   -0.001687    0.001144   -0.000130
H    -2.449773    1.576640   -0.209199    1.694832   -1.042855    0.135545
H     2.344857    1.031853   -0.030242    0.003117    0.001508   -0.000037
11
* Frequency(32) 3573.4314
C     1.356210    0.572788   -0.019610    0.001052   -0.000932    0.000106
C     1.179106   -0.796570    0.088562    0.000328   -0.000337    0.000040
N     0.007729   -1.454268    0.110806    0.001417   -0.000667    0.000094
C    -1.130955   -0.714061    0.018487   -0.001240   -0.002072    0.000132
N    -0.952877    0.651572   -0.089236   -0.124852    0.076839   -0.009965
C     0.193668    1.409011   -0.120649    0.001444    0.001910   -0.000118
O    -2.273006   -1.200850    0.028060    0.000015   -0.000036   -0.000003
O     0.161761    2.645999   -0.224812   -0.000009   -0.000041   -0.000005
H     2.076132   -1.430729    0.165559   -0.001687    0.001144   -0.000130
H    -2.433648    1.566718   -0.207909    1.694832   -1.042855    0.135545
H     2.344887    1.031868   -0.030242    0.003117    0.001508   -0.000037
11
* Frequency(32) 3573.4314
C     1.356258    0.572745   -0.019605    0.001052   -0.000932    0.000106
C     1.179121   -0.796586    0.088563    0.000328   -0.000337    0.000040
N     0.007795   -1.454299    0.110810    0.001417   -0.000667    0.000094
C    -1.131013   -0.714157    0.018493   -0.001240   -0.002072    0.000132
N    -0.958656    0.655128   -0.089697   -0.124852    0.076839   -0.009965
C     0.193735    1.409100   -0.120654    0.001444    0.001910   -0.000118
O    -2.273005   -1.200852    0.028060    0.000015   -0.000036   -0.000003
O     0.161761    2.645997   -0.224812   -0.000009   -0.000041   -0.000005
H     2.076054   -1.430676    0.165553   -0.001687    0.001144   -0.000130
H    -2.355208    1.518453   -0.201636    1.694832   -1.042855    0.135545
H     2.345031    1.031937   -0.030244    0.003117    0.001508   -0.000037
11
* Frequency(32) 3573.4314
C     1.356340    0.572672   -0.019596    0.001052   -0.000932    0.000106
C     1.179147   -0.796612    0.088567    0.000328   -0.000337    0.000040
N     0.007905   -1.454351    0.110818    0.001417   -0.000667    0.000094
C    -1.131109   -0.714319    0.018503   -0.001240   -0.002072    0.000132
N    -0.968398    0.661124   -0.090475   -0.124852    0.076839   -0.009965
C     0.193847    1.409249   -0.120663    0.001444    0.001910   -0.000118
O    -2.273004   -1.200855    0.028059    0.000015   -0.000036   -0.000003
O     0.161760    2.645994   -0.224813   -0.000009   -0.000041   -0.000005
H     2.075922   -1.430587    0.165542   -0.001687    0.001144   -0.000130
H    -2.222954    1.437075   -0.191059    1.694832   -1.042855    0.135545
H     2.345274    1.032055   -0.030247    0.003117    0.001508   -0.000037
11
* Frequency(32) 3573.4314
C     1.356447    0.572578   -0.019586    0.001052   -0.000932    0.000106
C     1.179180   -0.796646    0.088571    0.000328   -0.000337    0.000040
N     0.008049   -1.454418    0.110827    0.001417   -0.000667    0.000094
C    -1.131235   -0.714529    0.018517   -0.001240   -0.002072    0.000132
N    -0.981050    0.668910   -0.091484   -0.124852    0.076839   -0.009965
C     0.193994    1.409442   -0.120675    0.001444    0.001910   -0.000118
O    -2.273003   -1.200858    0.028059    0.000015   -0.000036   -0.000003
O     0.161759    2.645990   -0.224813   -0.000009   -0.000041   -0.000005
H     2.075751   -1.430471    0.165529   -0.001687    0.001144   -0.000130
H    -2.051217    1.331403   -0.177324    1.694832   -1.042855    0.135545
H     2.345590    1.032208   -0.030250    0.003117    0.001508   -0.000037
11
* Frequency(32) 3573.4314
C     1.356566    0.572472   -0.019574    0.001052   -0.000932    0.000106
C     1.179217   -0.796685    0.088575    0.000328   -0.000337    0.000040
N     0.008210   -1.454494    0.110838    0.001417   -0.000667    0.000094
C    -1.131376   -0.714764    0.018532   -0.001240   -0.002072    0.000132
N    -0.995238    0.677642   -0.092617   -0.124852    0.076839   -0.009965
C     0.194158    1.409660   -0.120689    0.001444    0.001910   -0.000118
O    -2.273001   -1.200862    0.028059    0.000015   -0.000036   -0.000003
O     0.161758    2.645985   -0.224814   -0.000009   -0.000041   -0.000005
H     2.075560   -1.430341    0.165515   -0.001687    0.001144   -0.000130
H    -1.858608    1.212888   -0.161920    1.694832   -1.042855    0.135545
H     2.345944    1.032379   -0.030255    0.003117    0.001508   -0.000037
