11
* (null), Energy   -1000.0000000
C     1.589770    0.404289    0.010476    0.007681   -0.025082   -0.305487
C     1.411370   -0.965186    0.118323   -0.013727    0.038772    0.469164
N     0.241399   -1.624530    0.140582    0.009001   -0.029366   -0.346920
C    -0.900298   -0.884733    0.048827    0.004977   -0.015811   -0.189486
N    -0.762264    0.508959   -0.063346   -0.004205    0.011336    0.129257
C     0.427306    1.242907   -0.091179    0.006676   -0.018463   -0.235321
O    -2.041444   -1.368814    0.058335   -0.002505    0.008237    0.121054
O     0.393949    2.478247   -0.194845   -0.000991    0.008588    0.091741
H     2.308617   -1.598423    0.195226   -0.044311    0.131897    1.592152
H    -1.625843    1.043584   -0.132009   -0.025467    0.074695    0.890993
H     2.579572    0.863274    0.000136   -0.008181    0.022182    0.275513
11
* Frequency(9)  442.0720
C     1.590643    0.401438   -0.024241    0.007681   -0.025082   -0.305487
C     1.409810   -0.960780    0.171641   -0.013727    0.038772    0.469164
N     0.242422   -1.627867    0.101157    0.009001   -0.029366   -0.346920
C    -0.899732   -0.886530    0.027293    0.004977   -0.015811   -0.189486
N    -0.762742    0.510247   -0.048657   -0.004205    0.011336    0.129257
C     0.428064    1.240809   -0.117922    0.006676   -0.018463   -0.235321
O    -2.041728   -1.367878    0.072092   -0.002505    0.008237    0.121054
O     0.393836    2.479223   -0.184419   -0.000991    0.008588    0.091741
H     2.303582   -1.583433    0.376166   -0.044311    0.131897    1.592152
H    -1.628737    1.052073   -0.030753   -0.025467    0.074695    0.890993
H     2.578643    0.865795    0.031447   -0.008181    0.022182    0.275513
11
* Frequency(9)  442.0720
C     1.591421    0.398897   -0.055196    0.007681   -0.025082   -0.305487
C     1.408419   -0.956851    0.219181   -0.013727    0.038772    0.469164
N     0.243334   -1.630843    0.066003    0.009001   -0.029366   -0.346920
C    -0.899228   -0.888132    0.008092    0.004977   -0.015811   -0.189486
N    -0.763168    0.511396   -0.035559   -0.004205    0.011336    0.129257
C     0.428741    1.238938   -0.141767    0.006676   -0.018463   -0.235321
O    -2.041982   -1.367043    0.084359   -0.002505    0.008237    0.121054
O     0.393736    2.480093   -0.175123   -0.000991    0.008588    0.091741
H     2.299092   -1.570068    0.537498   -0.044311    0.131897    1.592152
H    -1.631318    1.059642    0.059531   -0.025467    0.074695    0.890993
H     2.577814    0.868043    0.059365   -0.008181    0.022182    0.275513
11
* Frequency(9)  442.0720
C     1.592021    0.396939   -0.079034    0.007681   -0.025082   -0.305487
C     1.407348   -0.953826    0.255792   -0.013727    0.038772    0.469164
N     0.244036   -1.633134    0.038932    0.009001   -0.029366   -0.346920
C    -0.898840   -0.889366   -0.006694    0.004977   -0.015811   -0.189486
N    -0.763497    0.512280   -0.025473   -0.004205    0.011336    0.129257
C     0.429262    1.237497   -0.160130    0.006676   -0.018463   -0.235321
O    -2.042178   -1.366400    0.093805   -0.002505    0.008237    0.121054
O     0.393658    2.480763   -0.167964   -0.000991    0.008588    0.091741
H     2.295634   -1.559776    0.661740   -0.044311    0.131897    1.592152
H    -1.633305    1.065471    0.129059   -0.025467    0.074695    0.890993
H     2.577175    0.869774    0.080864   -0.008181    0.022182    0.275513
11
* Frequency(9)  442.0720
C     1.592376    0.395778   -0.093173    0.007681   -0.025082   -0.305487
C     1.406713   -0.952032    0.277506   -0.013727    0.038772    0.469164
N     0.244453   -1.634493    0.022876    0.009001   -0.029366   -0.346920
C    -0.898609   -0.890098   -0.015464    0.004977   -0.015811   -0.189486
N    -0.763691    0.512805   -0.019490   -0.004205    0.011336    0.129257
C     0.429571    1.236643   -0.171021    0.006676   -0.018463   -0.235321
O    -2.042294   -1.366019    0.099407   -0.002505    0.008237    0.121054
O     0.393612    2.481161   -0.163718   -0.000991    0.008588    0.091741
H     2.293583   -1.553671    0.735427   -0.044311    0.131897    1.592152
H    -1.634484    1.068928    0.170296   -0.025467    0.074695    0.890993
H     2.576797    0.870800    0.093615   -0.008181    0.022182    0.275513
11
* Frequency(9)  442.0720
C     1.592449    0.395540   -0.096079    0.007681   -0.025082   -0.305487
C     1.406582   -0.951663    0.281969   -0.013727    0.038772    0.469164
N     0.244538   -1.634773    0.019575    0.009001   -0.029366   -0.346920
C    -0.898562   -0.890248   -0.017267    0.004977   -0.015811   -0.189486
N    -0.763731    0.512913   -0.018261   -0.004205    0.011336    0.129257
C     0.429634    1.236467   -0.173260    0.006676   -0.018463   -0.235321
O    -2.042317   -1.365941    0.100559   -0.002505    0.008237    0.121054
O     0.393603    2.481242   -0.162845   -0.000991    0.008588    0.091741
H     2.293162   -1.552416    0.750576   -0.044311    0.131897    1.592152
H    -1.634726    1.069639    0.178773   -0.025467    0.074695    0.890993
H     2.576719    0.871011    0.096237   -0.008181    0.022182    0.275513
11
* Frequency(9)  442.0720
C     1.592232    0.396249   -0.087439    0.007681   -0.025082   -0.305487
C     1.406971   -0.952759    0.268700   -0.013727    0.038772    0.469164
N     0.244284   -1.633942    0.029387    0.009001   -0.029366   -0.346920
C    -0.898703   -0.889801   -0.011907    0.004977   -0.015811   -0.189486
N    -0.763612    0.512592   -0.021917   -0.004205    0.011336    0.129257
C     0.429445    1.236989   -0.166604    0.006676   -0.018463   -0.235321
O    -2.042247   -1.366174    0.097135   -0.002505    0.008237    0.121054
O     0.393631    2.480999   -0.165440   -0.000991    0.008588    0.091741
H     2.294415   -1.556147    0.705543   -0.044311    0.131897    1.592152
H    -1.634006    1.067526    0.153572   -0.025467    0.074695    0.890993
H     2.576950    0.870384    0.088444   -0.008181    0.022182    0.275513
11
* Frequency(9)  442.0720
C     1.591748    0.397830   -0.068188    0.007681   -0.025082   -0.305487
C     1.407836   -0.955203    0.239134   -0.013727    0.038772    0.469164
N     0.243717   -1.632092    0.051249    0.009001   -0.029366   -0.346920
C    -0.899016   -0.888805    0.000033    0.004977   -0.015811   -0.189486
N    -0.763347    0.511878   -0.030062   -0.004205    0.011336    0.129257
C     0.429025    1.238153   -0.151775    0.006676   -0.018463   -0.235321
O    -2.042089   -1.366693    0.089507   -0.002505    0.008237    0.121054
O     0.393693    2.480458   -0.171221   -0.000991    0.008588    0.091741
H     2.297207   -1.564459    0.605210   -0.044311    0.131897    1.592152
H    -1.632401    1.062819    0.097424   -0.025467    0.074695    0.890993
H     2.577466    0.868986    0.071082   -0.008181    0.022182    0.275513
11
* Frequency(9)  442.0720
C     1.591050    0.400110   -0.040413    0.007681   -0.025082   -0.305487
C     1.409084   -0.958728    0.196477   -0.013727    0.038772    0.469164
N     0.242898   -1.629422    0.082792    0.009001   -0.029366   -0.346920
C    -0.899469   -0.887367    0.017262    0.004977   -0.015811   -0.189486
N    -0.762965    0.510847   -0.041814   -0.004205    0.011336    0.129257
C     0.428418    1.239831   -0.130379    0.006676   -0.018463   -0.235321
O    -2.041861   -1.367442    0.078500   -0.002505    0.008237    0.121054
O     0.393783    2.479677   -0.179562   -0.000991    0.008588    0.091741
H     2.301236   -1.576451    0.460449   -0.044311    0.131897    1.592152
H    -1.630085    1.056027    0.016414   -0.025467    0.074695    0.890993
H     2.578210    0.866969    0.046032   -0.008181    0.022182    0.275513
11
* Frequency(9)  442.0720
C     1.590213    0.402844   -0.007123    0.007681   -0.025082   -0.305487
C     1.410580   -0.962953    0.145351   -0.013727    0.038772    0.469164
N     0.241917   -1.626221    0.120597    0.009001   -0.029366   -0.346920
C    -0.900011   -0.885644    0.037911    0.004977   -0.015811   -0.189486
N    -0.762507    0.509612   -0.055900   -0.004205    0.011336    0.129257
C     0.427690    1.241843   -0.104735    0.006676   -0.018463   -0.235321
O    -2.041588   -1.368339    0.065309   -0.002505    0.008237    0.121054
O     0.393891    2.478742   -0.189560   -0.000991    0.008588    0.091741
H     2.306065   -1.590824    0.286947   -0.044311    0.131897    1.592152
H    -1.627310    1.047887   -0.080681   -0.025467    0.074695    0.890993
H     2.579101    0.864552    0.016008   -0.008181    0.022182    0.275513
11
* Frequency(9)  442.0720
C     1.589328    0.405734    0.028074    0.007681   -0.025082   -0.305487
C     1.412161   -0.967420    0.091295   -0.013727    0.038772    0.469164
N     0.240880   -1.622838    0.160568    0.009001   -0.029366   -0.346920
C    -0.900585   -0.883823    0.059743    0.004977   -0.015811   -0.189486
N    -0.762022    0.508306   -0.070792   -0.004205    0.011336    0.129257
C     0.426921    1.243971   -0.077622    0.006676   -0.018463   -0.235321
O    -2.041299   -1.369288    0.051361   -0.002505    0.008237    0.121054
O     0.394006    2.477752   -0.200130   -0.000991    0.008588    0.091741
H     2.311170   -1.606021    0.103505   -0.044311    0.131897    1.592152
H    -1.624376    1.039281   -0.183338   -0.025467    0.074695    0.890993
H     2.580044    0.861996   -0.015735   -0.008181    0.022182    0.275513
11
* Frequency(9)  442.0720
C     1.588491    0.408467    0.061364    0.007681   -0.025082   -0.305487
C     1.413657   -0.971645    0.040169   -0.013727    0.038772    0.469164
N     0.239900   -1.619638    0.198373    0.009001   -0.029366   -0.346920
C    -0.901127   -0.882100    0.080392    0.004977   -0.015811   -0.189486
N    -0.761564    0.507070   -0.084878   -0.004205    0.011336    0.129257
C     0.426194    1.245983   -0.051978    0.006676   -0.018463   -0.235321
O    -2.041026   -1.370186    0.038170   -0.002505    0.008237    0.121054
O     0.394114    2.476816   -0.210127   -0.000991    0.008588    0.091741
H     2.315999   -1.620394   -0.069997   -0.044311    0.131897    1.592152
H    -1.621601    1.031142   -0.280433   -0.025467    0.074695    0.890993
H     2.580935    0.859579   -0.045759   -0.008181    0.022182    0.275513
11
* Frequency(9)  442.0720
C     1.587792    0.410748    0.089140    0.007681   -0.025082   -0.305487
C     1.414905   -0.975170   -0.002488   -0.013727    0.038772    0.469164
N     0.239081   -1.616968    0.229915    0.009001   -0.029366   -0.346920
C    -0.901580   -0.880662    0.097620    0.004977   -0.015811   -0.189486
N    -0.761181    0.506040   -0.096630   -0.004205    0.011336    0.129257
C     0.425587    1.247661   -0.030583    0.006676   -0.018463   -0.235321
O    -2.040799   -1.370935    0.027163   -0.002505    0.008237    0.121054
O     0.394204    2.476035   -0.218468   -0.000991    0.008588    0.091741
H     2.320027   -1.632386   -0.214759   -0.044311    0.131897    1.592152
H    -1.619285    1.024350   -0.361443   -0.025467    0.074695    0.890993
H     2.581679    0.857562   -0.070809   -0.008181    0.022182    0.275513
11
* Frequency(9)  442.0720
C     1.587308    0.412328    0.108391    0.007681   -0.025082   -0.305487
C     1.415770   -0.977614   -0.032054   -0.013727    0.038772    0.469164
N     0.238514   -1.615117    0.251777    0.009001   -0.029366   -0.346920
C    -0.901893   -0.879666    0.109561    0.004977   -0.015811   -0.189486
N    -0.760916    0.505325   -0.104776   -0.004205    0.011336    0.129257
C     0.425166    1.248825   -0.015753    0.006676   -0.018463   -0.235321
O    -2.040641   -1.371454    0.019535   -0.002505    0.008237    0.121054
O     0.394266    2.475494   -0.224250   -0.000991    0.008588    0.091741
H     2.322820   -1.640698   -0.315092   -0.044311    0.131897    1.592152
H    -1.617680    1.019643   -0.417591   -0.025467    0.074695    0.890993
H     2.582195    0.856164   -0.088171   -0.008181    0.022182    0.275513
11
* Frequency(9)  442.0720
C     1.587091    0.413038    0.117031    0.007681   -0.025082   -0.305487
C     1.416158   -0.978710   -0.045324   -0.013727    0.038772    0.469164
N     0.238260   -1.614287    0.261590    0.009001   -0.029366   -0.346920
C    -0.902034   -0.879218    0.114921    0.004977   -0.015811   -0.189486
N    -0.760798    0.505005   -0.108432   -0.004205    0.011336    0.129257
C     0.424977    1.249347   -0.009098    0.006676   -0.018463   -0.235321
O    -2.040570   -1.371687    0.016111   -0.002505    0.008237    0.121054
O     0.394294    2.475251   -0.226845   -0.000991    0.008588    0.091741
H     2.324073   -1.644429   -0.360124   -0.044311    0.131897    1.592152
H    -1.616960    1.017530   -0.442792   -0.025467    0.074695    0.890993
H     2.582426    0.855537   -0.095964   -0.008181    0.022182    0.275513
11
* Frequency(9)  442.0720
C     1.587164    0.412799    0.114124    0.007681   -0.025082   -0.305487
C     1.416028   -0.978341   -0.040860   -0.013727    0.038772    0.469164
N     0.238345   -1.614566    0.258289    0.009001   -0.029366   -0.346920
C    -0.901987   -0.879369    0.113118    0.004977   -0.015811   -0.189486
N    -0.760838    0.505113   -0.107202   -0.004205    0.011336    0.129257
C     0.425041    1.249171   -0.011336    0.006676   -0.018463   -0.235321
O    -2.040594   -1.371609    0.017263   -0.002505    0.008237    0.121054
O     0.394285    2.475333   -0.225972   -0.000991    0.008588    0.091741
H     2.323651   -1.643174   -0.344976   -0.044311    0.131897    1.592152
H    -1.617202    1.018241   -0.434315   -0.025467    0.074695    0.890993
H     2.582348    0.855748   -0.093343   -0.008181    0.022182    0.275513
11
* Frequency(9)  442.0720
C     1.587519    0.411638    0.099986    0.007681   -0.025082   -0.305487
C     1.415393   -0.976547   -0.019146   -0.013727    0.038772    0.469164
N     0.238762   -1.615925    0.242233    0.009001   -0.029366   -0.346920
C    -0.901756   -0.880101    0.104348    0.004977   -0.015811   -0.189486
N    -0.761032    0.505637   -0.101219   -0.004205    0.011336    0.129257
C     0.425350    1.248317   -0.022228    0.006676   -0.018463   -0.235321
O    -2.040710   -1.371227    0.022865   -0.002505    0.008237    0.121054
O     0.394239    2.475730   -0.221726   -0.000991    0.008588    0.091741
H     2.321601   -1.637069   -0.271288   -0.044311    0.131897    1.592152
H    -1.618381    1.021698   -0.393078   -0.025467    0.074695    0.890993
H     2.581970    0.856775   -0.080591   -0.008181    0.022182    0.275513
11
* Frequency(9)  442.0720
C     1.588119    0.409681    0.076148    0.007681   -0.025082   -0.305487
C     1.414321   -0.973521    0.017465   -0.013727    0.038772    0.469164
N     0.239464   -1.618217    0.215161    0.009001   -0.029366   -0.346920
C    -0.901368   -0.881334    0.089562    0.004977   -0.015811   -0.189486
N    -0.761360    0.506522   -0.091133   -0.004205    0.011336    0.129257
C     0.425871    1.246876   -0.040591    0.006676   -0.018463   -0.235321
O    -2.040905   -1.370585    0.032311   -0.002505    0.008237    0.121054
O     0.394162    2.476400   -0.214567   -0.000991    0.008588    0.091741
H     2.318143   -1.626777   -0.147046   -0.044311    0.131897    1.592152
H    -1.620368    1.027527   -0.323550   -0.025467    0.074695    0.890993
H     2.581331    0.858506   -0.059092   -0.008181    0.022182    0.275513
11
* Frequency(9)  442.0720
C     1.588897    0.407139    0.045193    0.007681   -0.025082   -0.305487
C     1.412930   -0.969593    0.065005   -0.013727    0.038772    0.469164
N     0.240376   -1.621192    0.180008    0.009001   -0.029366   -0.346920
C    -0.900864   -0.882937    0.070361    0.004977   -0.015811   -0.189486
N    -0.761786    0.507671   -0.078036   -0.004205    0.011336    0.129257
C     0.426547    1.245005   -0.064436    0.006676   -0.018463   -0.235321
O    -2.041159   -1.369750    0.044578   -0.002505    0.008237    0.121054
O     0.394061    2.477271   -0.205271   -0.000991    0.008588    0.091741
H     2.313653   -1.613412    0.014286   -0.044311    0.131897    1.592152
H    -1.622949    1.035096   -0.233266   -0.025467    0.074695    0.890993
H     2.580502    0.860753   -0.031174   -0.008181    0.022182    0.275513
11
* Frequency(9)  442.0720
C     1.589770    0.404289    0.010476    0.007681   -0.025082   -0.305487
C     1.411370   -0.965186    0.118323   -0.013727    0.038772    0.469164
N     0.241399   -1.624530    0.140582    0.009001   -0.029366   -0.346920
C    -0.900298   -0.884733    0.048827    0.004977   -0.015811   -0.189486
N    -0.762264    0.508959   -0.063346   -0.004205    0.011336    0.129257
C     0.427306    1.242907   -0.091179    0.006676   -0.018463   -0.235321
O    -2.041444   -1.368814    0.058335   -0.002505    0.008237    0.121054
O     0.393949    2.478247   -0.194845   -0.000991    0.008588    0.091741
H     2.308617   -1.598423    0.195226   -0.044311    0.131897    1.592152
H    -1.625843    1.043584   -0.132009   -0.025467    0.074695    0.890993
H     2.579572    0.863274    0.000136   -0.008181    0.022182    0.275513
