11
* (null), Energy   -1000.0000000
C     1.589770    0.404289    0.010476   -0.466133    0.646962   -0.066198
C     1.411370   -0.965186    0.118323    0.544282   -0.174260    0.029156
N     0.241399   -1.624530    0.140582   -0.610354    0.057215   -0.021574
C    -0.900298   -0.884733    0.048827    0.134426   -0.463583    0.042464
N    -0.762264    0.508959   -0.063346   -0.257091    0.021828   -0.008803
C     0.427306    1.242907   -0.091179    0.602263    0.263811   -0.004969
O    -2.041444   -1.368814    0.058335    0.157115    0.110682   -0.005081
O     0.393949    2.478247   -0.194845   -0.041970   -0.297753    0.023371
H     2.308617   -1.598423    0.195226    0.288240   -0.564976    0.054693
H    -1.625843    1.043584   -0.132009   -0.109571    0.269671   -0.027282
H     2.579572    0.863274    0.000136    0.338258   -1.085997    0.098983
11
* Frequency(26) 1489.2536
C     1.536797    0.477813    0.002953   -0.466133    0.646962   -0.066198
C     1.473225   -0.984990    0.121636    0.544282   -0.174260    0.029156
N     0.172035   -1.618028    0.138130   -0.610354    0.057215   -0.021574
C    -0.885021   -0.937417    0.053653    0.134426   -0.463583    0.042464
N    -0.791481    0.511439   -0.064346   -0.257091    0.021828   -0.008803
C     0.495750    1.272888   -0.091743    0.602263    0.263811   -0.004969
O    -2.023588   -1.356235    0.057758    0.157115    0.110682   -0.005081
O     0.389179    2.444409   -0.192189   -0.041970   -0.297753    0.023371
H     2.341374   -1.662629    0.201441    0.288240   -0.564976    0.054693
H    -1.638295    1.074231   -0.135110   -0.109571    0.269671   -0.027282
H     2.618014    0.739856    0.011385    0.338258   -1.085997    0.098983
11
* Frequency(26) 1489.2536
C     1.489564    0.543369   -0.003755   -0.466133    0.646962   -0.066198
C     1.528377   -1.002648    0.124591    0.544282   -0.174260    0.029156
N     0.110188   -1.612230    0.135944   -0.610354    0.057215   -0.021574
C    -0.871400   -0.984392    0.057956    0.134426   -0.463583    0.042464
N    -0.817532    0.513651   -0.065238   -0.257091    0.021828   -0.008803
C     0.556777    1.299620   -0.092247    0.602263    0.263811   -0.004969
O    -2.007668   -1.345020    0.057243    0.157115    0.110682   -0.005081
O     0.384926    2.414237   -0.189820   -0.041970   -0.297753    0.023371
H     2.370581   -1.719878    0.206983    0.288240   -0.564976    0.054693
H    -1.649398    1.101557   -0.137874   -0.109571    0.269671   -0.027282
H     2.652289    0.629813    0.021415    0.338258   -1.085997    0.098983
11
* Frequency(26) 1489.2536
C     1.453189    0.593854   -0.008921   -0.466133    0.646962   -0.066198
C     1.570850   -1.016246    0.126866    0.544282   -0.174260    0.029156
N     0.062560   -1.607765    0.134261   -0.610354    0.057215   -0.021574
C    -0.860910   -1.020567    0.061269    0.134426   -0.463583    0.042464
N    -0.837594    0.515354   -0.065925   -0.257091    0.021828   -0.008803
C     0.603774    1.320206   -0.092635    0.602263    0.263811   -0.004969
O    -1.995408   -1.336383    0.056846    0.157115    0.110682   -0.005081
O     0.381651    2.391003   -0.187997   -0.041970   -0.297753    0.023371
H     2.393074   -1.763965    0.211251    0.288240   -0.564976    0.054693
H    -1.657948    1.122600   -0.140003   -0.109571    0.269671   -0.027282
H     2.678685    0.545068    0.029139    0.338258   -1.085997    0.098983
11
* Frequency(26) 1489.2536
C     1.431616    0.623796   -0.011984   -0.466133    0.646962   -0.066198
C     1.596040   -1.024311    0.128215    0.544282   -0.174260    0.029156
N     0.034312   -1.605117    0.133262   -0.610354    0.057215   -0.021574
C    -0.854688   -1.042022    0.063234    0.134426   -0.463583    0.042464
N    -0.849493    0.516365   -0.066333   -0.257091    0.021828   -0.008803
C     0.631648    1.332415   -0.092864    0.602263    0.263811   -0.004969
O    -1.988136   -1.331261    0.056611    0.157115    0.110682   -0.005081
O     0.379709    2.377222   -0.186915   -0.041970   -0.297753    0.023371
H     2.406414   -1.790113    0.213783    0.288240   -0.564976    0.054693
H    -1.663019    1.135081   -0.141266   -0.109571    0.269671   -0.027282
H     2.694340    0.494806    0.033720    0.338258   -1.085997    0.098983
11
* Frequency(26) 1489.2536
C     1.427181    0.629952   -0.012614   -0.466133    0.646962   -0.066198
C     1.601219   -1.025969    0.128493    0.544282   -0.174260    0.029156
N     0.028505   -1.604573    0.133057   -0.610354    0.057215   -0.021574
C    -0.853409   -1.046433    0.063638    0.134426   -0.463583    0.042464
N    -0.851939    0.516572   -0.066416   -0.257091    0.021828   -0.008803
C     0.637378    1.334925   -0.092912    0.602263    0.263811   -0.004969
O    -1.986641   -1.330207    0.056563    0.157115    0.110682   -0.005081
O     0.379309    2.374389   -0.186693   -0.041970   -0.297753    0.023371
H     2.409157   -1.795489    0.214303    0.288240   -0.564976    0.054693
H    -1.664062    1.137647   -0.141525   -0.109571    0.269671   -0.027282
H     2.697558    0.484474    0.034662    0.338258   -1.085997    0.098983
11
* Frequency(26) 1489.2536
C     1.440365    0.611653   -0.010742   -0.466133    0.646962   -0.066198
C     1.585824   -1.021040    0.127668    0.544282   -0.174260    0.029156
N     0.045768   -1.606191    0.133667   -0.610354    0.057215   -0.021574
C    -0.857212   -1.033321    0.062437    0.134426   -0.463583    0.042464
N    -0.844667    0.515955   -0.066168   -0.257091    0.021828   -0.008803
C     0.620343    1.327464   -0.092771    0.602263    0.263811   -0.004969
O    -1.991085   -1.333338    0.056706    0.157115    0.110682   -0.005081
O     0.380496    2.382811   -0.187354   -0.041970   -0.297753    0.023371
H     2.401004   -1.779509    0.212756    0.288240   -0.564976    0.054693
H    -1.660963    1.130020   -0.140754   -0.109571    0.269671   -0.027282
H     2.687991    0.515190    0.031862    0.338258   -1.085997    0.098983
11
* Frequency(26) 1489.2536
C     1.469739    0.570883   -0.006570   -0.466133    0.646962   -0.066198
C     1.551525   -1.010059    0.125831    0.544282   -0.174260    0.029156
N     0.084231   -1.609797    0.135027   -0.610354    0.057215   -0.021574
C    -0.865683   -1.004108    0.059761    0.134426   -0.463583    0.042464
N    -0.828466    0.514579   -0.065613   -0.257091    0.021828   -0.008803
C     0.582390    1.310839   -0.092458    0.602263    0.263811   -0.004969
O    -2.000986   -1.340313    0.057027    0.157115    0.110682   -0.005081
O     0.383141    2.401574   -0.188827   -0.041970   -0.297753    0.023371
H     2.382840   -1.743906    0.209310    0.288240   -0.564976    0.054693
H    -1.654058    1.113026   -0.139035   -0.109571    0.269671   -0.027282
H     2.666675    0.583626    0.025625    0.338258   -1.085997    0.098983
11
* Frequency(26) 1489.2536
C     1.512121    0.512061   -0.000551   -0.466133    0.646962   -0.066198
C     1.502038   -0.994215    0.123180    0.544282   -0.174260    0.029156
N     0.139725   -1.614999    0.136988   -0.610354    0.057215   -0.021574
C    -0.877905   -0.961958    0.055901    0.134426   -0.463583    0.042464
N    -0.805091    0.512595   -0.064812   -0.257091    0.021828   -0.008803
C     0.527632    1.286853   -0.092006    0.602263    0.263811   -0.004969
O    -2.015271   -1.350376    0.057489    0.157115    0.110682   -0.005081
O     0.386957    2.428647   -0.190952   -0.041970   -0.297753    0.023371
H     2.356633   -1.692537    0.204337    0.288240   -0.564976    0.054693
H    -1.644096    1.088507   -0.136554   -0.109571    0.269671   -0.027282
H     2.635920    0.682367    0.016625    0.338258   -1.085997    0.098983
11
* Frequency(26) 1489.2536
C     1.562917    0.441559    0.006662   -0.466133    0.646962   -0.066198
C     1.442725   -0.975225    0.120002    0.544282   -0.174260    0.029156
N     0.206238   -1.621234    0.139339   -0.610354    0.057215   -0.021574
C    -0.892554   -0.911440    0.051273    0.134426   -0.463583    0.042464
N    -0.777075    0.510216   -0.063853   -0.257091    0.021828   -0.008803
C     0.462001    1.258105   -0.091465    0.602263    0.263811   -0.004969
O    -2.032393   -1.362438    0.058042    0.157115    0.110682   -0.005081
O     0.391531    2.461094   -0.193498   -0.041970   -0.297753    0.023371
H     2.325222   -1.630970    0.198377    0.288240   -0.564976    0.054693
H    -1.632155    1.059120   -0.133581   -0.109571    0.269671   -0.027282
H     2.599059    0.800712    0.005839    0.338258   -1.085997    0.098983
11
* Frequency(26) 1489.2536
C     1.616623    0.367018    0.014289   -0.466133    0.646962   -0.066198
C     1.380015   -0.955148    0.116643    0.544282   -0.174260    0.029156
N     0.276560   -1.627826    0.141825   -0.610354    0.057215   -0.021574
C    -0.908042   -0.858027    0.046381    0.134426   -0.463583    0.042464
N    -0.747454    0.507701   -0.062839   -0.257091    0.021828   -0.008803
C     0.392611    1.227709   -0.090892    0.602263    0.263811   -0.004969
O    -2.050495   -1.375190    0.058628    0.157115    0.110682   -0.005081
O     0.396366    2.495400   -0.196191   -0.041970   -0.297753    0.023371
H     2.292012   -1.565875    0.192075    0.288240   -0.564976    0.054693
H    -1.619531    1.028049   -0.130438   -0.109571    0.269671   -0.027282
H     2.560086    0.925836   -0.005566    0.338258   -1.085997    0.098983
11
* Frequency(26) 1489.2536
C     1.667419    0.296517    0.021503   -0.466133    0.646962   -0.066198
C     1.320703   -0.936158    0.113466    0.544282   -0.174260    0.029156
N     0.343073   -1.634061    0.144176   -0.610354    0.057215   -0.021574
C    -0.922691   -0.807509    0.041753    0.134426   -0.463583    0.042464
N    -0.719438    0.505323   -0.061880   -0.257091    0.021828   -0.008803
C     0.326980    1.198961   -0.090351    0.602263    0.263811   -0.004969
O    -2.067616   -1.387251    0.059181    0.157115    0.110682   -0.005081
O     0.400940    2.527847   -0.198738   -0.041970   -0.297753    0.023371
H     2.260602   -1.504308    0.186115    0.288240   -0.564976    0.054693
H    -1.607591    0.998662   -0.127465   -0.109571    0.269671   -0.027282
H     2.523225    1.044181   -0.016352    0.338258   -1.085997    0.098983
11
* Frequency(26) 1489.2536
C     1.709801    0.237694    0.027522   -0.466133    0.646962   -0.066198
C     1.271216   -0.920314    0.110815    0.544282   -0.174260    0.029156
N     0.398567   -1.639263    0.146138   -0.610354    0.057215   -0.021574
C    -0.934913   -0.765359    0.037892    0.134426   -0.463583    0.042464
N    -0.696062    0.503338   -0.061079   -0.257091    0.021828   -0.008803
C     0.272221    1.174975   -0.089899    0.602263    0.263811   -0.004969
O    -2.081901   -1.397315    0.059643    0.157115    0.110682   -0.005081
O     0.404756    2.554919   -0.200863   -0.041970   -0.297753    0.023371
H     2.234395   -1.452939    0.181142    0.288240   -0.564976    0.054693
H    -1.597628    0.974143   -0.124984   -0.109571    0.269671   -0.027282
H     2.492470    1.142922   -0.025352    0.338258   -1.085997    0.098983
11
* Frequency(26) 1489.2536
C     1.739175    0.196924    0.031694   -0.466133    0.646962   -0.066198
C     1.236917   -0.909333    0.108978    0.544282   -0.174260    0.029156
N     0.437030   -1.642868    0.147497   -0.610354    0.057215   -0.021574
C    -0.943384   -0.736146    0.035216    0.134426   -0.463583    0.042464
N    -0.679861    0.501963   -0.060525   -0.257091    0.021828   -0.008803
C     0.234268    1.158350   -0.089586    0.602263    0.263811   -0.004969
O    -2.091802   -1.404290    0.059964    0.157115    0.110682   -0.005081
O     0.407401    2.573683   -0.202336   -0.041970   -0.297753    0.023371
H     2.216231   -1.417336    0.177695    0.288240   -0.564976    0.054693
H    -1.590723    0.957149   -0.123265   -0.109571    0.269671   -0.027282
H     2.471154    1.211359   -0.031590    0.338258   -1.085997    0.098983
11
* Frequency(26) 1489.2536
C     1.752359    0.178626    0.033566   -0.466133    0.646962   -0.066198
C     1.221522   -0.904404    0.108153    0.544282   -0.174260    0.029156
N     0.454293   -1.644486    0.148107   -0.610354    0.057215   -0.021574
C    -0.947186   -0.723034    0.034015    0.134426   -0.463583    0.042464
N    -0.672590    0.501345   -0.060276   -0.257091    0.021828   -0.008803
C     0.217234    1.150889   -0.089446    0.602263    0.263811   -0.004969
O    -2.096246   -1.407420    0.060107    0.157115    0.110682   -0.005081
O     0.408588    2.582104   -0.202997   -0.041970   -0.297753    0.023371
H     2.208078   -1.401357    0.176149    0.288240   -0.564976    0.054693
H    -1.587624    0.949522   -0.122493   -0.109571    0.269671   -0.027282
H     2.461586    1.242075   -0.034389    0.338258   -1.085997    0.098983
11
* Frequency(26) 1489.2536
C     1.747924    0.184781    0.032936   -0.466133    0.646962   -0.066198
C     1.226701   -0.906062    0.108430    0.544282   -0.174260    0.029156
N     0.448486   -1.643942    0.147902   -0.610354    0.057215   -0.021574
C    -0.945907   -0.727444    0.034419    0.134426   -0.463583    0.042464
N    -0.675036    0.501553   -0.060359   -0.257091    0.021828   -0.008803
C     0.222964    1.153399   -0.089493    0.602263    0.263811   -0.004969
O    -2.094751   -1.406367    0.060059    0.157115    0.110682   -0.005081
O     0.408188    2.579272   -0.202774   -0.041970   -0.297753    0.023371
H     2.210820   -1.406732    0.176669    0.288240   -0.564976    0.054693
H    -1.588667    0.952088   -0.122753   -0.109571    0.269671   -0.027282
H     2.464805    1.231742   -0.033447    0.338258   -1.085997    0.098983
11
* Frequency(26) 1489.2536
C     1.726351    0.214724    0.029872   -0.466133    0.646962   -0.066198
C     1.251891   -0.914127    0.109780    0.544282   -0.174260    0.029156
N     0.420238   -1.641294    0.146904   -0.610354    0.057215   -0.021574
C    -0.939686   -0.748900    0.036385    0.134426   -0.463583    0.042464
N    -0.686934    0.502563   -0.060767   -0.257091    0.021828   -0.008803
C     0.250838    1.165608   -0.089723    0.602263    0.263811   -0.004969
O    -2.087480   -1.401245    0.059824    0.157115    0.110682   -0.005081
O     0.406246    2.565491   -0.201693   -0.041970   -0.297753    0.023371
H     2.224161   -1.432880    0.179200    0.288240   -0.564976    0.054693
H    -1.593738    0.964569   -0.124016   -0.109571    0.269671   -0.027282
H     2.480460    1.181480   -0.028866    0.338258   -1.085997    0.098983
11
* Frequency(26) 1489.2536
C     1.689977    0.265209    0.024707   -0.466133    0.646962   -0.066198
C     1.294364   -0.927725    0.112055    0.544282   -0.174260    0.029156
N     0.372609   -1.636829    0.145220   -0.610354    0.057215   -0.021574
C    -0.929196   -0.785075    0.039698    0.134426   -0.463583    0.042464
N    -0.706996    0.504266   -0.061454   -0.257091    0.021828   -0.008803
C     0.297835    1.186194   -0.090111    0.602263    0.263811   -0.004969
O    -2.075219   -1.392608    0.059427    0.157115    0.110682   -0.005081
O     0.402971    2.542256   -0.199869   -0.041970   -0.297753    0.023371
H     2.246653   -1.476967    0.183468    0.288240   -0.564976    0.054693
H    -1.602288    0.985612   -0.126145   -0.109571    0.269671   -0.027282
H     2.506856    1.096736   -0.021142    0.338258   -1.085997    0.098983
11
* Frequency(26) 1489.2536
C     1.642744    0.330765    0.017999   -0.466133    0.646962   -0.066198
C     1.349516   -0.945383    0.115009    0.544282   -0.174260    0.029156
N     0.310763   -1.631032    0.143034   -0.610354    0.057215   -0.021574
C    -0.915575   -0.832050    0.044001    0.134426   -0.463583    0.042464
N    -0.733047    0.506478   -0.062346   -0.257091    0.021828   -0.008803
C     0.358862    1.212926   -0.090614    0.602263    0.263811   -0.004969
O    -2.059299   -1.381392    0.058912    0.157115    0.110682   -0.005081
O     0.398718    2.512085   -0.197501   -0.041970   -0.297753    0.023371
H     2.275860   -1.534216    0.189010    0.288240   -0.564976    0.054693
H    -1.613391    1.012938   -0.128909   -0.109571    0.269671   -0.027282
H     2.541131    0.986692   -0.011113    0.338258   -1.085997    0.098983
11
* Frequency(26) 1489.2536
C     1.589770    0.404289    0.010476   -0.466133    0.646962   -0.066198
C     1.411370   -0.965186    0.118323    0.544282   -0.174260    0.029156
N     0.241399   -1.624530    0.140582   -0.610354    0.057215   -0.021574
C    -0.900298   -0.884733    0.048827    0.134426   -0.463583    0.042464
N    -0.762264    0.508959   -0.063346   -0.257091    0.021828   -0.008803
C     0.427306    1.242907   -0.091179    0.602263    0.263811   -0.004969
O    -2.041444   -1.368814    0.058335    0.157115    0.110682   -0.005081
O     0.393949    2.478247   -0.194845   -0.041970   -0.297753    0.023371
H     2.308617   -1.598423    0.195226    0.288240   -0.564976    0.054693
H    -1.625843    1.043584   -0.132009   -0.109571    0.269671   -0.027282
H     2.579572    0.863274    0.000136    0.338258   -1.085997    0.098983
