11
* (null), Energy   -1000.0000000
C     1.589770    0.404289    0.010476   -0.067866    0.008411    0.122195
C     1.411370   -0.965186    0.118323    0.031796   -0.031322   -0.331320
N     0.241399   -1.624530    0.140582    0.015449   -0.008423    0.029052
C    -0.900298   -0.884733    0.048827   -0.021466    0.010888    0.077806
N    -0.762264    0.508959   -0.063346    0.054665    0.034481   -0.019692
C     0.427306    1.242907   -0.091179    0.007917   -0.009347    0.040311
O    -2.041444   -1.368814    0.058335   -0.022157   -0.019564   -0.015593
O     0.393949    2.478247   -0.194845   -0.005765   -0.015095   -0.006864
H     2.308617   -1.598423    0.195226    0.017463    0.215846    1.867371
H    -1.625843    1.043584   -0.132009    0.142310    0.171100   -0.052843
H     2.579572    0.863274    0.000136   -0.099643    0.055690   -0.503741
11
* Frequency(19) 1005.6818
C     1.582058    0.405245    0.024363   -0.067866    0.008411    0.122195
C     1.414984   -0.968746    0.080670    0.031796   -0.031322   -0.331320
N     0.243155   -1.625487    0.143884    0.015449   -0.008423    0.029052
C    -0.902737   -0.883496    0.057669   -0.021466    0.010888    0.077806
N    -0.756052    0.512877   -0.065584    0.054665    0.034481   -0.019692
C     0.428206    1.241845   -0.086598    0.007917   -0.009347    0.040311
O    -2.043962   -1.371037    0.056563   -0.022157   -0.019564   -0.015593
O     0.393293    2.476531   -0.195625   -0.005765   -0.015095   -0.006864
H     2.310602   -1.573893    0.407443    0.017463    0.215846    1.867371
H    -1.609670    1.063029   -0.138015    0.142310    0.171100   -0.052843
H     2.568249    0.869603   -0.057111   -0.099643    0.055690   -0.503741
11
* Frequency(19) 1005.6818
C     1.575181    0.406097    0.036745   -0.067866    0.008411    0.122195
C     1.418206   -0.971920    0.047097    0.031796   -0.031322   -0.331320
N     0.244720   -1.626340    0.146828    0.015449   -0.008423    0.029052
C    -0.904913   -0.882393    0.065553   -0.021466    0.010888    0.077806
N    -0.750513    0.516371   -0.067579    0.054665    0.034481   -0.019692
C     0.429008    1.240898   -0.082513    0.007917   -0.009347    0.040311
O    -2.046207   -1.373020    0.054983   -0.022157   -0.019564   -0.015593
O     0.392709    2.475002   -0.196320   -0.005765   -0.015095   -0.006864
H     2.312371   -1.552021    0.596663    0.017463    0.215846    1.867371
H    -1.595250    1.080367   -0.143369    0.142310    0.171100   -0.052843
H     2.558152    0.875246   -0.108155   -0.099643    0.055690   -0.503741
11
* Frequency(19) 1005.6818
C     1.569885    0.406753    0.046280   -0.067866    0.008411    0.122195
C     1.420687   -0.974364    0.021243    0.031796   -0.031322   -0.331320
N     0.245926   -1.626998    0.149095    0.015449   -0.008423    0.029052
C    -0.906588   -0.881543    0.071625   -0.021466    0.010888    0.077806
N    -0.746247    0.519062   -0.069116    0.054665    0.034481   -0.019692
C     0.429626    1.240168   -0.079367    0.007917   -0.009347    0.040311
O    -2.047936   -1.374546    0.053766   -0.022157   -0.019564   -0.015593
O     0.392259    2.473824   -0.196856   -0.005765   -0.015095   -0.006864
H     2.313734   -1.535178    0.742381    0.017463    0.215846    1.867371
H    -1.584145    1.093718   -0.147493    0.142310    0.171100   -0.052843
H     2.550376    0.879592   -0.147464   -0.099643    0.055690   -0.503741
11
* Frequency(19) 1005.6818
C     1.566744    0.407142    0.051935   -0.067866    0.008411    0.122195
C     1.422158   -0.975813    0.005909    0.031796   -0.031322   -0.331320
N     0.246641   -1.627387    0.150439    0.015449   -0.008423    0.029052
C    -0.907581   -0.881039    0.075226   -0.021466    0.010888    0.077806
N    -0.743717    0.520658   -0.070027    0.054665    0.034481   -0.019692
C     0.429992    1.239736   -0.077502    0.007917   -0.009347    0.040311
O    -2.048961   -1.375452    0.053045   -0.022157   -0.019564   -0.015593
O     0.391993    2.473125   -0.197174   -0.005765   -0.015095   -0.006864
H     2.314542   -1.525188    0.828806    0.017463    0.215846    1.867371
H    -1.577559    1.101637   -0.149939    0.142310    0.171100   -0.052843
H     2.545764    0.882169   -0.170778   -0.099643    0.055690   -0.503741
11
* Frequency(19) 1005.6818
C     1.566098    0.407222    0.053098   -0.067866    0.008411    0.122195
C     1.422461   -0.976111    0.002757    0.031796   -0.031322   -0.331320
N     0.246788   -1.627467    0.150716    0.015449   -0.008423    0.029052
C    -0.907785   -0.880936    0.075966   -0.021466    0.010888    0.077806
N    -0.743197    0.520986   -0.070215    0.054665    0.034481   -0.019692
C     0.430067    1.239647   -0.077118    0.007917   -0.009347    0.040311
O    -2.049172   -1.375638    0.052896   -0.022157   -0.019564   -0.015593
O     0.391938    2.472982   -0.197239   -0.005765   -0.015095   -0.006864
H     2.314709   -1.523135    0.846573    0.017463    0.215846    1.867371
H    -1.576205    1.103265   -0.150441    0.142310    0.171100   -0.052843
H     2.544816    0.882699   -0.175571   -0.099643    0.055690   -0.503741
11
* Frequency(19) 1005.6818
C     1.568018    0.406985    0.049642   -0.067866    0.008411    0.122195
C     1.421562   -0.975226    0.012128    0.031796   -0.031322   -0.331320
N     0.246351   -1.627229    0.149894    0.015449   -0.008423    0.029052
C    -0.907178   -0.881244    0.073765   -0.021466    0.010888    0.077806
N    -0.744743    0.520011   -0.069658    0.054665    0.034481   -0.019692
C     0.429843    1.239911   -0.078258    0.007917   -0.009347    0.040311
O    -2.048545   -1.375085    0.053337   -0.022157   -0.019564   -0.015593
O     0.392101    2.473409   -0.197045   -0.005765   -0.015095   -0.006864
H     2.314215   -1.529239    0.793757    0.017463    0.215846    1.867371
H    -1.580230    1.098426   -0.148947    0.142310    0.171100   -0.052843
H     2.547635    0.881124   -0.161323   -0.099643    0.055690   -0.503741
11
* Frequency(19) 1005.6818
C     1.572294    0.406455    0.041941   -0.067866    0.008411    0.122195
C     1.419558   -0.973252    0.033007    0.031796   -0.031322   -0.331320
N     0.245377   -1.626698    0.148063    0.015449   -0.008423    0.029052
C    -0.905826   -0.881930    0.068862   -0.021466    0.010888    0.077806
N    -0.748188    0.517838   -0.068417    0.054665    0.034481   -0.019692
C     0.429345    1.240500   -0.080799    0.007917   -0.009347    0.040311
O    -2.047149   -1.373852    0.054320   -0.022157   -0.019564   -0.015593
O     0.392464    2.474360   -0.196612   -0.005765   -0.015095   -0.006864
H     2.313114   -1.542842    0.676080    0.017463    0.215846    1.867371
H    -1.589198    1.087643   -0.145617    0.142310    0.171100   -0.052843
H     2.553914    0.877615   -0.129579   -0.099643    0.055690   -0.503741
11
* Frequency(19) 1005.6818
C     1.578465    0.405690    0.030831   -0.067866    0.008411    0.122195
C     1.416667   -0.970404    0.063131    0.031796   -0.031322   -0.331320
N     0.243972   -1.625933    0.145422    0.015449   -0.008423    0.029052
C    -0.903874   -0.882920    0.061788   -0.021466    0.010888    0.077806
N    -0.753158    0.514703   -0.066626    0.054665    0.034481   -0.019692
C     0.428625    1.241350   -0.084464    0.007917   -0.009347    0.040311
O    -2.045135   -1.372073    0.055738   -0.022157   -0.019564   -0.015593
O     0.392988    2.475732   -0.195988   -0.005765   -0.015095   -0.006864
H     2.311526   -1.562467    0.506295    0.017463    0.215846    1.867371
H    -1.602137    1.072087   -0.140812    0.142310    0.171100   -0.052843
H     2.562974    0.872551   -0.083778   -0.099643    0.055690   -0.503741
11
* Frequency(19) 1005.6818
C     1.585861    0.404773    0.017515   -0.067866    0.008411    0.122195
C     1.413202   -0.966991    0.099236    0.031796   -0.031322   -0.331320
N     0.242289   -1.625015    0.142256    0.015449   -0.008423    0.029052
C    -0.901535   -0.884106    0.053309   -0.021466    0.010888    0.077806
N    -0.759115    0.510945   -0.064481    0.054665    0.034481   -0.019692
C     0.427762    1.242369   -0.088856    0.007917   -0.009347    0.040311
O    -2.042720   -1.369941    0.057437   -0.022157   -0.019564   -0.015593
O     0.393616    2.477377   -0.195240   -0.005765   -0.015095   -0.006864
H     2.309623   -1.585988    0.302802    0.017463    0.215846    1.867371
H    -1.617645    1.053441   -0.135054    0.142310    0.171100   -0.052843
H     2.573832    0.866482   -0.028883   -0.099643    0.055690   -0.503741
11
* Frequency(19) 1005.6818
C     1.593680    0.403804    0.003436   -0.067866    0.008411    0.122195
C     1.409539   -0.963382    0.137410    0.031796   -0.031322   -0.331320
N     0.240509   -1.624044    0.138909    0.015449   -0.008423    0.029052
C    -0.899061   -0.885361    0.044345   -0.021466    0.010888    0.077806
N    -0.765413    0.506972   -0.062212    0.054665    0.034481   -0.019692
C     0.426850    1.243446   -0.093501    0.007917   -0.009347    0.040311
O    -2.040167   -1.367687    0.059233   -0.022157   -0.019564   -0.015593
O     0.394281    2.479116   -0.194449   -0.005765   -0.015095   -0.006864
H     2.307611   -1.610857    0.087650    0.017463    0.215846    1.867371
H    -1.634041    1.033728   -0.128965    0.142310    0.171100   -0.052843
H     2.585313    0.860066    0.029156   -0.099643    0.055690   -0.503741
11
* Frequency(19) 1005.6818
C     1.601075    0.402888   -0.009880   -0.067866    0.008411    0.122195
C     1.406074   -0.959969    0.173515    0.031796   -0.031322   -0.331320
N     0.238825   -1.623127    0.135743    0.015449   -0.008423    0.029052
C    -0.896722   -0.886547    0.035866   -0.021466    0.010888    0.077806
N    -0.771370    0.503215   -0.060066    0.054665    0.034481   -0.019692
C     0.425987    1.244464   -0.097894    0.007917   -0.009347    0.040311
O    -2.037753   -1.365555    0.060932   -0.022157   -0.019564   -0.015593
O     0.394909    2.480761   -0.193701   -0.005765   -0.015095   -0.006864
H     2.305708   -1.634379   -0.115844    0.017463    0.215846    1.867371
H    -1.649549    1.015082   -0.123207    0.142310    0.171100   -0.052843
H     2.596171    0.853997    0.084050   -0.099643    0.055690   -0.503741
11
* Frequency(19) 1005.6818
C     1.607246    0.402123   -0.020990   -0.067866    0.008411    0.122195
C     1.403183   -0.957121    0.203639    0.031796   -0.031322   -0.331320
N     0.237421   -1.622361    0.133101    0.015449   -0.008423    0.029052
C    -0.894770   -0.887537    0.028791   -0.021466    0.010888    0.077806
N    -0.776341    0.500080   -0.058275    0.054665    0.034481   -0.019692
C     0.425267    1.245314   -0.101559    0.007917   -0.009347    0.040311
O    -2.035738   -1.363776    0.062350   -0.022157   -0.019564   -0.015593
O     0.395433    2.482134   -0.193077   -0.005765   -0.015095   -0.006864
H     2.304121   -1.654004   -0.285629    0.017463    0.215846    1.867371
H    -1.662488    0.999526   -0.118402    0.142310    0.171100   -0.052843
H     2.605231    0.848934    0.129851   -0.099643    0.055690   -0.503741
11
* Frequency(19) 1005.6818
C     1.611523    0.401593   -0.028690   -0.067866    0.008411    0.122195
C     1.401179   -0.955147    0.224518    0.031796   -0.031322   -0.331320
N     0.236447   -1.621830    0.131270    0.015449   -0.008423    0.029052
C    -0.893418   -0.888223    0.023888   -0.021466    0.010888    0.077806
N    -0.779785    0.497907   -0.057034    0.054665    0.034481   -0.019692
C     0.424768    1.245903   -0.104099    0.007917   -0.009347    0.040311
O    -2.034342   -1.362543    0.063333   -0.022157   -0.019564   -0.015593
O     0.395796    2.483085   -0.192645   -0.005765   -0.015095   -0.006864
H     2.303020   -1.667606   -0.403305    0.017463    0.215846    1.867371
H    -1.671456    0.988743   -0.115072    0.142310    0.171100   -0.052843
H     2.611510    0.845424    0.161596   -0.099643    0.055690   -0.503741
11
* Frequency(19) 1005.6818
C     1.613442    0.401355   -0.032146   -0.067866    0.008411    0.122195
C     1.400280   -0.954261    0.233889    0.031796   -0.031322   -0.331320
N     0.236010   -1.621592    0.130449    0.015449   -0.008423    0.029052
C    -0.892811   -0.888531    0.021688   -0.021466    0.010888    0.077806
N    -0.781332    0.496931   -0.056477    0.054665    0.034481   -0.019692
C     0.424544    1.246167   -0.105239    0.007917   -0.009347    0.040311
O    -2.033715   -1.361990    0.063774   -0.022157   -0.019564   -0.015593
O     0.395959    2.483512   -0.192451   -0.005765   -0.015095   -0.006864
H     2.302526   -1.673711   -0.456122    0.017463    0.215846    1.867371
H    -1.675481    0.983904   -0.113578    0.142310    0.171100   -0.052843
H     2.614328    0.843849    0.175843   -0.099643    0.055690   -0.503741
11
* Frequency(19) 1005.6818
C     1.612796    0.401435   -0.030984   -0.067866    0.008411    0.122195
C     1.400582   -0.954559    0.230737    0.031796   -0.031322   -0.331320
N     0.236157   -1.621672    0.130725    0.015449   -0.008423    0.029052
C    -0.893015   -0.888428    0.022428   -0.021466    0.010888    0.077806
N    -0.780811    0.497260   -0.056665    0.054665    0.034481   -0.019692
C     0.424619    1.246079   -0.104856    0.007917   -0.009347    0.040311
O    -2.033926   -1.362176    0.063625   -0.022157   -0.019564   -0.015593
O     0.395904    2.483368   -0.192516   -0.005765   -0.015095   -0.006864
H     2.302692   -1.671657   -0.438355    0.017463    0.215846    1.867371
H    -1.674127    0.985532   -0.114080    0.142310    0.171100   -0.052843
H     2.613380    0.844379    0.171051   -0.099643    0.055690   -0.503741
11
* Frequency(19) 1005.6818
C     1.609655    0.401824   -0.025328   -0.067866    0.008411    0.122195
C     1.402054   -0.956009    0.215403    0.031796   -0.031322   -0.331320
N     0.236872   -1.622062    0.132070    0.015449   -0.008423    0.029052
C    -0.894008   -0.887924    0.026029   -0.021466    0.010888    0.077806
N    -0.778281    0.498855   -0.057576    0.054665    0.034481   -0.019692
C     0.424986    1.245646   -0.102990    0.007917   -0.009347    0.040311
O    -2.034951   -1.363081    0.062904   -0.022157   -0.019564   -0.015593
O     0.395638    2.482670   -0.192834   -0.005765   -0.015095   -0.006864
H     2.303500   -1.661667   -0.351929    0.017463    0.215846    1.867371
H    -1.667541    0.993451   -0.116526    0.142310    0.171100   -0.052843
H     2.608769    0.846956    0.147737   -0.099643    0.055690   -0.503741
11
* Frequency(19) 1005.6818
C     1.604360    0.402481   -0.015793   -0.067866    0.008411    0.122195
C     1.404535   -0.958453    0.189548    0.031796   -0.031322   -0.331320
N     0.238078   -1.622719    0.134337    0.015449   -0.008423    0.029052
C    -0.895683   -0.887074    0.032100   -0.021466    0.010888    0.077806
N    -0.774016    0.501546   -0.059113    0.054665    0.034481   -0.019692
C     0.425604    1.244916   -0.099844    0.007917   -0.009347    0.040311
O    -2.036680   -1.364608    0.061687   -0.022157   -0.019564   -0.015593
O     0.395188    2.481492   -0.193369   -0.005765   -0.015095   -0.006864
H     2.304863   -1.644824   -0.206211    0.017463    0.215846    1.867371
H    -1.656436    1.006802   -0.120650    0.142310    0.171100   -0.052843
H     2.600993    0.851302    0.108428   -0.099643    0.055690   -0.503741
11
* Frequency(19) 1005.6818
C     1.597483    0.403333   -0.003411   -0.067866    0.008411    0.122195
C     1.407757   -0.961627    0.155976    0.031796   -0.031322   -0.331320
N     0.239643   -1.623572    0.137281    0.015449   -0.008423    0.029052
C    -0.897858   -0.885971    0.039985   -0.021466    0.010888    0.077806
N    -0.768477    0.505040   -0.061108    0.054665    0.034481   -0.019692
C     0.426406    1.243969   -0.095760    0.007917   -0.009347    0.040311
O    -2.038926   -1.366590    0.060107   -0.022157   -0.019564   -0.015593
O     0.394604    2.479962   -0.194065   -0.005765   -0.015095   -0.006864
H     2.306633   -1.622952   -0.016991    0.017463    0.215846    1.867371
H    -1.642016    1.024140   -0.126004    0.142310    0.171100   -0.052843
H     2.590896    0.856945    0.057384   -0.099643    0.055690   -0.503741
11
* Frequency(19) 1005.6818
C     1.589770    0.404289    0.010476   -0.067866    0.008411    0.122195
C     1.411370   -0.965186    0.118323    0.031796   -0.031322   -0.331320
N     0.241399   -1.624530    0.140582    0.015449   -0.008423    0.029052
C    -0.900298   -0.884733    0.048827   -0.021466    0.010888    0.077806
N    -0.762264    0.508959   -0.063346    0.054665    0.034481   -0.019692
C     0.427306    1.242907   -0.091179    0.007917   -0.009347    0.040311
O    -2.041444   -1.368814    0.058335   -0.022157   -0.019564   -0.015593
O     0.393949    2.478247   -0.194845   -0.005765   -0.015095   -0.006864
H     2.308617   -1.598423    0.195226    0.017463    0.215846    1.867371
H    -1.625843    1.043584   -0.132009    0.142310    0.171100   -0.052843
H     2.579572    0.863274    0.000136   -0.099643    0.055690   -0.503741
