11
* (null), Energy   -1000.0000000
C     1.356566    0.572472   -0.019574    0.007649   -0.024853   -0.301266
C     1.179217   -0.796685    0.088575   -0.013122    0.038236    0.465143
N     0.008210   -1.454494    0.110838    0.009351   -0.029001   -0.341470
C    -1.131376   -0.714764    0.018532    0.005167   -0.015891   -0.187858
N    -0.995238    0.677642   -0.092617   -0.003257    0.010561    0.128201
C     0.194158    1.409660   -0.120689    0.006464   -0.018906   -0.235719
O    -2.273001   -1.200862    0.028059   -0.002948    0.009538    0.116944
O     0.161758    2.645985   -0.224814   -0.002088    0.008334    0.090632
H     2.075560   -1.430341    0.165515   -0.043548    0.130448    1.576393
H    -1.858608    1.212888   -0.161920   -0.026981    0.076367    0.930704
H     2.345944    1.032379   -0.030255   -0.007597    0.020932    0.256304
11
* Frequency(9)  440.5533
C     1.357436    0.569647   -0.053811    0.007649   -0.024853   -0.301266
C     1.177726   -0.792339    0.141436   -0.013122    0.038236    0.465143
N     0.009273   -1.457790    0.072032    0.009351   -0.029001   -0.341470
C    -1.130789   -0.716570   -0.002817    0.005167   -0.015891   -0.187858
N    -0.995608    0.678843   -0.078048   -0.003257    0.010561    0.128201
C     0.194892    1.407511   -0.147477    0.006464   -0.018906   -0.235719
O    -2.273336   -1.199779    0.041349   -0.002948    0.009538    0.116944
O     0.161521    2.646933   -0.214514   -0.002088    0.008334    0.090632
H     2.070611   -1.415516    0.344663   -0.043548    0.130448    1.576393
H    -1.861674    1.221566   -0.056150   -0.026981    0.076367    0.930704
H     2.345081    1.034758   -0.001127   -0.007597    0.020932    0.256304
11
* Frequency(9)  440.5533
C     1.358211    0.567129   -0.084338    0.007649   -0.024853   -0.301266
C     1.176396   -0.788465    0.188569   -0.013122    0.038236    0.465143
N     0.010220   -1.460729    0.037431    0.009351   -0.029001   -0.341470
C    -1.130265   -0.718180   -0.021853    0.005167   -0.015891   -0.187858
N    -0.995938    0.679913   -0.065057   -0.003257    0.010561    0.128201
C     0.195547    1.405595   -0.171362    0.006464   -0.018906   -0.235719
O    -2.273635   -1.198812    0.053199   -0.002948    0.009538    0.116944
O     0.161309    2.647777   -0.205330   -0.002088    0.008334    0.090632
H     2.066198   -1.402298    0.504399   -0.043548    0.130448    1.576393
H    -1.864408    1.229305    0.038157   -0.026981    0.076367    0.930704
H     2.344311    1.036879    0.024844   -0.007597    0.020932    0.256304
11
* Frequency(9)  440.5533
C     1.358808    0.565190   -0.107847    0.007649   -0.024853   -0.301266
C     1.175372   -0.785481    0.224866   -0.013122    0.038236    0.465143
N     0.010950   -1.462992    0.010784    0.009351   -0.029001   -0.341470
C    -1.129862   -0.719420   -0.036512    0.005167   -0.015891   -0.187858
N    -0.996193    0.680737   -0.055053   -0.003257    0.010561    0.128201
C     0.196052    1.404120   -0.189756    0.006464   -0.018906   -0.235719
O    -2.273865   -1.198068    0.062324   -0.002948    0.009538    0.116944
O     0.161146    2.648427   -0.198258   -0.002088    0.008334    0.090632
H     2.062800   -1.392118    0.627411   -0.043548    0.130448    1.576393
H    -1.866514    1.235264    0.110784   -0.026981    0.076367    0.930704
H     2.343718    1.038512    0.044845   -0.007597    0.020932    0.256304
11
* Frequency(9)  440.5533
C     1.359162    0.564039   -0.121790    0.007649   -0.024853   -0.301266
C     1.174765   -0.783712    0.246394   -0.013122    0.038236    0.465143
N     0.011383   -1.464334   -0.005019    0.009351   -0.029001   -0.341470
C    -1.129623   -0.720156   -0.045207    0.005167   -0.015891   -0.187858
N    -0.996343    0.681226   -0.049120   -0.003257    0.010561    0.128201
C     0.196351    1.403245   -0.200666    0.006464   -0.018906   -0.235719
O    -2.274001   -1.197626    0.067737   -0.002948    0.009538    0.116944
O     0.161050    2.648813   -0.194064   -0.002088    0.008334    0.090632
H     2.060784   -1.386081    0.700369   -0.043548    0.130448    1.576393
H    -1.867763    1.238798    0.153859   -0.026981    0.076367    0.930704
H     2.343367    1.039481    0.056707   -0.007597    0.020932    0.256304
11
* Frequency(9)  440.5533
C     1.359234    0.563803   -0.124657    0.007649   -0.024853   -0.301266
C     1.174640   -0.783348    0.250819   -0.013122    0.038236    0.465143
N     0.011472   -1.464610   -0.008268    0.009351   -0.029001   -0.341470
C    -1.129574   -0.720307   -0.046994    0.005167   -0.015891   -0.187858
N    -0.996374    0.681326   -0.047900   -0.003257    0.010561    0.128201
C     0.196412    1.403065   -0.202909    0.006464   -0.018906   -0.235719
O    -2.274029   -1.197536    0.068849   -0.002948    0.009538    0.116944
O     0.161030    2.648893   -0.193201   -0.002088    0.008334    0.090632
H     2.060370   -1.384840    0.715368   -0.043548    0.130448    1.576393
H    -1.868019    1.239525    0.162714   -0.026981    0.076367    0.930704
H     2.343295    1.039680    0.059146   -0.007597    0.020932    0.256304
11
* Frequency(9)  440.5533
C     1.359018    0.564506   -0.116136    0.007649   -0.024853   -0.301266
C     1.175011   -0.784429    0.237663   -0.013122    0.038236    0.465143
N     0.011207   -1.463790    0.001390    0.009351   -0.029001   -0.341470
C    -1.129720   -0.719858   -0.041681    0.005167   -0.015891   -0.187858
N    -0.996282    0.681028   -0.051526   -0.003257    0.010561    0.128201
C     0.196230    1.403600   -0.196242    0.006464   -0.018906   -0.235719
O    -2.273946   -1.197805    0.065542   -0.002948    0.009538    0.116944
O     0.161089    2.648657   -0.195765   -0.002088    0.008334    0.090632
H     2.061602   -1.388529    0.670781   -0.043548    0.130448    1.576393
H    -1.867256    1.237365    0.136390   -0.026981    0.076367    0.930704
H     2.343509    1.039088    0.051896   -0.007597    0.020932    0.256304
11
* Frequency(9)  440.5533
C     1.358536    0.566072   -0.097151    0.007649   -0.024853   -0.301266
C     1.175838   -0.786839    0.208351   -0.013122    0.038236    0.465143
N     0.010618   -1.461962    0.022908    0.009351   -0.029001   -0.341470
C    -1.130045   -0.718856   -0.029842    0.005167   -0.015891   -0.187858
N    -0.996077    0.680362   -0.059605   -0.003257    0.010561    0.128201
C     0.195822    1.404791   -0.181387    0.006464   -0.018906   -0.235719
O    -2.273760   -1.198406    0.058172   -0.002948    0.009538    0.116944
O     0.161221    2.648132   -0.201476   -0.002088    0.008334    0.090632
H     2.064346   -1.396750    0.571441   -0.043548    0.130448    1.576393
H    -1.865556    1.232553    0.077739   -0.026981    0.076367    0.930704
H     2.343988    1.037769    0.035745   -0.007597    0.020932    0.256304
11
* Frequency(9)  440.5533
C     1.357841    0.568332   -0.069759    0.007649   -0.024853   -0.301266
C     1.177031   -0.790315    0.166060   -0.013122    0.038236    0.465143
N     0.009768   -1.459325    0.053955    0.009351   -0.029001   -0.341470
C    -1.130515   -0.717411   -0.012762    0.005167   -0.015891   -0.187858
N    -0.995781    0.679402   -0.071261   -0.003257    0.010561    0.128201
C     0.195234    1.406510   -0.159955    0.006464   -0.018906   -0.235719
O    -2.273492   -1.199274    0.047540   -0.002948    0.009538    0.116944
O     0.161410    2.647374   -0.209716   -0.002088    0.008334    0.090632
H     2.068305   -1.408610    0.428113   -0.043548    0.130448    1.576393
H    -1.863103    1.225609   -0.006882   -0.026981    0.076367    0.930704
H     2.344679    1.035866    0.012441   -0.007597    0.020932    0.256304
11
* Frequency(9)  440.5533
C     1.357007    0.571040   -0.036929    0.007649   -0.024853   -0.301266
C     1.178461   -0.794482    0.115371   -0.013122    0.038236    0.465143
N     0.008749   -1.456165    0.091167    0.009351   -0.029001   -0.341470
C    -1.131078   -0.715680    0.007710    0.005167   -0.015891   -0.187858
N    -0.995426    0.678251   -0.085232   -0.003257    0.010561    0.128201
C     0.194530    1.408570   -0.134268    0.006464   -0.018906   -0.235719
O    -2.273171   -1.200313    0.034796   -0.002948    0.009538    0.116944
O     0.161638    2.646466   -0.219593   -0.002088    0.008334    0.090632
H     2.073051   -1.422826    0.256328   -0.043548    0.130448    1.576393
H    -1.860162    1.217287   -0.108304   -0.026981    0.076367    0.930704
H     2.345507    1.033585   -0.015489   -0.007597    0.020932    0.256304
11
* Frequency(9)  440.5533
C     1.356126    0.573903   -0.002218    0.007649   -0.024853   -0.301266
C     1.179973   -0.798887    0.061779   -0.013122    0.038236    0.465143
N     0.007671   -1.452823    0.130509    0.009351   -0.029001   -0.341470
C    -1.131673   -0.713849    0.029354    0.005167   -0.015891   -0.187858
N    -0.995051    0.677034   -0.100002   -0.003257    0.010561    0.128201
C     0.193785    1.410749   -0.107110    0.006464   -0.018906   -0.235719
O    -2.272831   -1.201412    0.021322   -0.002948    0.009538    0.116944
O     0.161878    2.645505   -0.230035   -0.002088    0.008334    0.090632
H     2.078068   -1.437856    0.074702   -0.043548    0.130448    1.576393
H    -1.857054    1.208488   -0.215536   -0.026981    0.076367    0.930704
H     2.346382    1.031173   -0.045020   -0.007597    0.020932    0.256304
11
* Frequency(9)  440.5533
C     1.355292    0.576612    0.030612    0.007649   -0.024853   -0.301266
C     1.181403   -0.803054    0.011091   -0.013122    0.038236    0.465143
N     0.006652   -1.449663    0.167721    0.009351   -0.029001   -0.341470
C    -1.132236   -0.712117    0.049825    0.005167   -0.015891   -0.187858
N    -0.994696    0.675883   -0.113973   -0.003257    0.010561    0.128201
C     0.193081    1.412809   -0.081422    0.006464   -0.018906   -0.235719
O    -2.272510   -1.202451    0.008578   -0.002948    0.009538    0.116944
O     0.162106    2.644597   -0.239912   -0.002088    0.008334    0.090632
H     2.082814   -1.452071   -0.097084   -0.043548    0.130448    1.576393
H    -1.854113    1.200166   -0.316958   -0.026981    0.076367    0.930704
H     2.347210    1.028892   -0.072950   -0.007597    0.020932    0.256304
11
* Frequency(9)  440.5533
C     1.354597    0.578871    0.058003    0.007649   -0.024853   -0.301266
C     1.182596   -0.806530   -0.031201   -0.013122    0.038236    0.465143
N     0.005802   -1.447026    0.198768    0.009351   -0.029001   -0.341470
C    -1.132706   -0.710672    0.066906    0.005167   -0.015891   -0.187858
N    -0.994400    0.674923   -0.125629   -0.003257    0.010561    0.128201
C     0.192493    1.414528   -0.059991    0.006464   -0.018906   -0.235719
O    -2.272242   -1.203318   -0.002055   -0.002948    0.009538    0.116944
O     0.162296    2.643839   -0.248152   -0.002088    0.008334    0.090632
H     2.086773   -1.463932   -0.240412   -0.043548    0.130448    1.576393
H    -1.851660    1.193223   -0.401580   -0.026981    0.076367    0.930704
H     2.347901    1.026989   -0.096254   -0.007597    0.020932    0.256304
11
* Frequency(9)  440.5533
C     1.354115    0.580438    0.076988    0.007649   -0.024853   -0.301266
C     1.183423   -0.808940   -0.060513   -0.013122    0.038236    0.465143
N     0.005213   -1.445199    0.220286    0.009351   -0.029001   -0.341470
C    -1.133032   -0.709671    0.078744    0.005167   -0.015891   -0.187858
N    -0.994194    0.674257   -0.133708   -0.003257    0.010561    0.128201
C     0.192086    1.415719   -0.045136    0.006464   -0.018906   -0.235719
O    -2.272056   -1.203920   -0.009424   -0.002948    0.009538    0.116944
O     0.162427    2.643314   -0.253863   -0.002088    0.008334    0.090632
H     2.089517   -1.472152   -0.339752   -0.043548    0.130448    1.576393
H    -1.849960    1.188410   -0.460230   -0.026981    0.076367    0.930704
H     2.348379    1.025670   -0.112406   -0.007597    0.020932    0.256304
11
* Frequency(9)  440.5533
C     1.353899    0.581141    0.085509    0.007649   -0.024853   -0.301266
C     1.183794   -0.810021   -0.073669   -0.013122    0.038236    0.465143
N     0.004948   -1.444378    0.229944    0.009351   -0.029001   -0.341470
C    -1.133178   -0.709221    0.084057    0.005167   -0.015891   -0.187858
N    -0.994102    0.673959   -0.137334   -0.003257    0.010561    0.128201
C     0.191903    1.416254   -0.038469    0.006464   -0.018906   -0.235719
O    -2.271973   -1.204189   -0.012732   -0.002948    0.009538    0.116944
O     0.162486    2.643078   -0.256427   -0.002088    0.008334    0.090632
H     2.090749   -1.475842   -0.384339   -0.043548    0.130448    1.576393
H    -1.849197    1.186250   -0.486554   -0.026981    0.076367    0.930704
H     2.348594    1.025078   -0.119655   -0.007597    0.020932    0.256304
11
* Frequency(9)  440.5533
C     1.353971    0.580904    0.082643    0.007649   -0.024853   -0.301266
C     1.183669   -0.809658   -0.069243   -0.013122    0.038236    0.465143
N     0.005037   -1.444654    0.226695    0.009351   -0.029001   -0.341470
C    -1.133129   -0.709372    0.082270    0.005167   -0.015891   -0.187858
N    -0.994133    0.674059   -0.136114   -0.003257    0.010561    0.128201
C     0.191964    1.416074   -0.040712    0.006464   -0.018906   -0.235719
O    -2.272001   -1.204099   -0.011619   -0.002948    0.009538    0.116944
O     0.162467    2.643158   -0.255564   -0.002088    0.008334    0.090632
H     2.090335   -1.474601   -0.369340   -0.043548    0.130448    1.576393
H    -1.849454    1.186977   -0.477699   -0.026981    0.076367    0.930704
H     2.348522    1.025277   -0.117216   -0.007597    0.020932    0.256304
11
* Frequency(9)  440.5533
C     1.354325    0.579754    0.068700    0.007649   -0.024853   -0.301266
C     1.183062   -0.807888   -0.047716   -0.013122    0.038236    0.465143
N     0.005470   -1.445997    0.210892    0.009351   -0.029001   -0.341470
C    -1.132890   -0.710108    0.073576    0.005167   -0.015891   -0.187858
N    -0.994284    0.674548   -0.130181   -0.003257    0.010561    0.128201
C     0.192264    1.415199   -0.051621    0.006464   -0.018906   -0.235719
O    -2.272137   -1.203657   -0.006207   -0.002948    0.009538    0.116944
O     0.162370    2.643543   -0.251370   -0.002088    0.008334    0.090632
H     2.088319   -1.468563   -0.296382   -0.043548    0.130448    1.576393
H    -1.850702    1.190511   -0.434624   -0.026981    0.076367    0.930704
H     2.348170    1.026246   -0.105354   -0.007597    0.020932    0.256304
11
* Frequency(9)  440.5533
C     1.354922    0.577814    0.045191    0.007649   -0.024853   -0.301266
C     1.182038   -0.804904   -0.011419   -0.013122    0.038236    0.465143
N     0.006200   -1.448260    0.184245    0.009351   -0.029001   -0.341470
C    -1.132486   -0.711348    0.058916    0.005167   -0.015891   -0.187858
N    -0.994538    0.675372   -0.120177   -0.003257    0.010561    0.128201
C     0.192768    1.413724   -0.070015    0.006464   -0.018906   -0.235719
O    -2.272367   -1.202913    0.002919   -0.002948    0.009538    0.116944
O     0.162207    2.644194   -0.244298   -0.002088    0.008334    0.090632
H     2.084921   -1.458384   -0.173370   -0.043548    0.130448    1.576393
H    -1.852808    1.196471   -0.361998   -0.026981    0.076367    0.930704
H     2.347577    1.027880   -0.085354   -0.007597    0.020932    0.256304
11
* Frequency(9)  440.5533
C     1.355697    0.575296    0.014664    0.007649   -0.024853   -0.301266
C     1.180708   -0.801030    0.035714   -0.013122    0.038236    0.465143
N     0.007147   -1.451198    0.149644    0.009351   -0.029001   -0.341470
C    -1.131963   -0.712958    0.039881    0.005167   -0.015891   -0.187858
N    -0.994868    0.676442   -0.107186   -0.003257    0.010561    0.128201
C     0.193423    1.411808   -0.093901    0.006464   -0.018906   -0.235719
O    -2.272666   -1.201946    0.014769   -0.002948    0.009538    0.116944
O     0.161995    2.645038   -0.235114   -0.002088    0.008334    0.090632
H     2.080508   -1.445165   -0.013634   -0.043548    0.130448    1.576393
H    -1.855542    1.204209   -0.267690   -0.026981    0.076367    0.930704
H     2.346808    1.030000   -0.059382   -0.007597    0.020932    0.256304
11
* Frequency(9)  440.5533
C     1.356566    0.572472   -0.019574    0.007649   -0.024853   -0.301266
C     1.179217   -0.796685    0.088575   -0.013122    0.038236    0.465143
N     0.008210   -1.454494    0.110838    0.009351   -0.029001   -0.341470
C    -1.131376   -0.714764    0.018532    0.005167   -0.015891   -0.187858
N    -0.995238    0.677642   -0.092617   -0.003257    0.010561    0.128201
C     0.194158    1.409660   -0.120689    0.006464   -0.018906   -0.235719
O    -2.273001   -1.200862    0.028059   -0.002948    0.009538    0.116944
O     0.161758    2.645985   -0.224814   -0.002088    0.008334    0.090632
H     2.075560   -1.430341    0.165515   -0.043548    0.130448    1.576393
H    -1.858608    1.212888   -0.161920   -0.026981    0.076367    0.930704
H     2.345944    1.032379   -0.030255   -0.007597    0.020932    0.256304
