11
* (null), Energy   -1000.0000000
C     1.356566    0.572472   -0.019574   -0.008365    0.023985    0.291298
C     1.179217   -0.796685    0.088575    0.000364   -0.001486   -0.018261
N     0.008210   -1.454494    0.110838    0.006681   -0.020308   -0.243671
C    -1.131376   -0.714764    0.018532    0.004490   -0.014073   -0.167028
N    -0.995238    0.677642   -0.092617    0.030766   -0.093237   -1.123702
C     0.194158    1.409660   -0.120689    0.001849   -0.006864   -0.084226
O    -2.273001   -1.200862    0.028059   -0.020325    0.062289    0.752803
O     0.161758    2.645985   -0.224814   -0.011372    0.036579    0.435909
H     2.075560   -1.430341    0.165515   -0.001759    0.005397    0.063434
H    -1.858608    1.212888   -0.161920    0.028255   -0.085480   -1.029782
H     2.345944    1.032379   -0.030255   -0.023964    0.070029    0.840324
11
* Frequency(6)  165.7873
C     1.355616    0.575198    0.013531   -0.008365    0.023985    0.291298
C     1.179259   -0.796853    0.086500    0.000364   -0.001486   -0.018261
N     0.008969   -1.456802    0.083146    0.006681   -0.020308   -0.243671
C    -1.130865   -0.716363   -0.000450    0.004490   -0.014073   -0.167028
N    -0.991742    0.667047   -0.220320    0.030766   -0.093237   -1.123702
C     0.194368    1.408880   -0.130261    0.001849   -0.006864   -0.084226
O    -2.275311   -1.193784    0.113611   -0.020325    0.062289    0.752803
O     0.160466    2.650142   -0.175275   -0.011372    0.036579    0.435909
H     2.075360   -1.429727    0.172723   -0.001759    0.005397    0.063434
H    -1.855397    1.203173   -0.278950    0.028255   -0.085480   -1.029782
H     2.343221    1.040338    0.065244   -0.023964    0.070029    0.840324
11
* Frequency(6)  165.7873
C     1.354768    0.577628    0.043048   -0.008365    0.023985    0.291298
C     1.179295   -0.797004    0.084650    0.000364   -0.001486   -0.018261
N     0.009646   -1.458860    0.058455    0.006681   -0.020308   -0.243671
C    -1.130410   -0.717789   -0.017375    0.004490   -0.014073   -0.167028
N    -0.988624    0.657599   -0.334184    0.030766   -0.093237   -1.123702
C     0.194555    1.408184   -0.138795    0.001849   -0.006864   -0.084226
O    -2.277370   -1.187472    0.189892   -0.020325    0.062289    0.752803
O     0.159314    2.653849   -0.131105   -0.011372    0.036579    0.435909
H     2.075181   -1.429180    0.179151   -0.001759    0.005397    0.063434
H    -1.852534    1.194512   -0.383297    0.028255   -0.085480   -1.029782
H     2.340793    1.047434    0.150393   -0.023964    0.070029    0.840324
11
* Frequency(6)  165.7873
C     1.354115    0.579500    0.065779   -0.008365    0.023985    0.291298
C     1.179324   -0.797120    0.083224    0.000364   -0.001486   -0.018261
N     0.010168   -1.460445    0.039440    0.006681   -0.020308   -0.243671
C    -1.130060   -0.718888   -0.030409    0.004490   -0.014073   -0.167028
N    -0.986224    0.650323   -0.421871    0.030766   -0.093237   -1.123702
C     0.194699    1.407648   -0.145368    0.001849   -0.006864   -0.084226
O    -2.278956   -1.182611    0.248636   -0.020325    0.062289    0.752803
O     0.158426    2.656703   -0.097089   -0.011372    0.036579    0.435909
H     2.075044   -1.428759    0.184101   -0.001759    0.005397    0.063434
H    -1.850329    1.187841   -0.463655    0.028255   -0.085480   -1.029782
H     2.338923    1.052898    0.215967   -0.023964    0.070029    0.840324
11
* Frequency(6)  165.7873
C     1.353728    0.580610    0.079261   -0.008365    0.023985    0.291298
C     1.179341   -0.797189    0.082379    0.000364   -0.001486   -0.018261
N     0.010477   -1.461385    0.028163    0.006681   -0.020308   -0.243671
C    -1.129852   -0.719539   -0.038139    0.004490   -0.014073   -0.167028
N    -0.984800    0.646008   -0.473878    0.030766   -0.093237   -1.123702
C     0.194785    1.407331   -0.149266    0.001849   -0.006864   -0.084226
O    -2.279897   -1.179728    0.283477   -0.020325    0.062289    0.752803
O     0.157900    2.658396   -0.076914   -0.011372    0.036579    0.435909
H     2.074963   -1.428509    0.187037   -0.001759    0.005397    0.063434
H    -1.849021    1.183885   -0.511315    0.028255   -0.085480   -1.029782
H     2.337814    1.056139    0.254859   -0.023964    0.070029    0.840324
11
* Frequency(6)  165.7873
C     1.353649    0.580838    0.082033   -0.008365    0.023985    0.291298
C     1.179344   -0.797203    0.082206    0.000364   -0.001486   -0.018261
N     0.010540   -1.461578    0.025844    0.006681   -0.020308   -0.243671
C    -1.129810   -0.719673   -0.039729    0.004490   -0.014073   -0.167028
N    -0.984507    0.645121   -0.484569    0.030766   -0.093237   -1.123702
C     0.194803    1.407265   -0.150067    0.001849   -0.006864   -0.084226
O    -2.280090   -1.179136    0.290640   -0.020325    0.062289    0.752803
O     0.157792    2.658744   -0.072767   -0.011372    0.036579    0.435909
H     2.074946   -1.428458    0.187641   -0.001759    0.005397    0.063434
H    -1.848753    1.183072   -0.521113    0.028255   -0.085480   -1.029782
H     2.337586    1.056806    0.262854   -0.023964    0.070029    0.840324
11
* Frequency(6)  165.7873
C     1.353885    0.580159    0.073794   -0.008365    0.023985    0.291298
C     1.179334   -0.797161    0.082722    0.000364   -0.001486   -0.018261
N     0.010351   -1.461003    0.032736    0.006681   -0.020308   -0.243671
C    -1.129937   -0.719275   -0.035004    0.004490   -0.014073   -0.167028
N    -0.985377    0.647758   -0.452787    0.030766   -0.093237   -1.123702
C     0.194750    1.407460   -0.147685    0.001849   -0.006864   -0.084226
O    -2.279516   -1.180897    0.269348   -0.020325    0.062289    0.752803
O     0.158113    2.657710   -0.085096   -0.011372    0.036579    0.435909
H     2.074996   -1.428611    0.185846   -0.001759    0.005397    0.063434
H    -1.849552    1.185490   -0.491987    0.028255   -0.085480   -1.029782
H     2.338263    1.054825    0.239086   -0.023964    0.070029    0.840324
11
* Frequency(6)  165.7873
C     1.354412    0.578648    0.055437   -0.008365    0.023985    0.291298
C     1.179311   -0.797067    0.083873    0.000364   -0.001486   -0.018261
N     0.009930   -1.459724    0.048092    0.006681   -0.020308   -0.243671
C    -1.130219   -0.718388   -0.024479    0.004490   -0.014073   -0.167028
N    -0.987316    0.653634   -0.381974    0.030766   -0.093237   -1.123702
C     0.194634    1.407892   -0.142377    0.001849   -0.006864   -0.084226
O    -2.278235   -1.184823    0.221908   -0.020325    0.062289    0.752803
O     0.158830    2.655405   -0.112566   -0.011372    0.036579    0.435909
H     2.075106   -1.428951    0.181849   -0.001759    0.005397    0.063434
H    -1.851332    1.190876   -0.427092    0.028255   -0.085480   -1.029782
H     2.339773    1.050412    0.186132   -0.023964    0.070029    0.840324
11
* Frequency(6)  165.7873
C     1.355173    0.576467    0.028951   -0.008365    0.023985    0.291298
C     1.179278   -0.796932    0.085533    0.000364   -0.001486   -0.018261
N     0.009323   -1.457877    0.070247    0.006681   -0.020308   -0.243671
C    -1.130628   -0.717108   -0.009292    0.004490   -0.014073   -0.167028
N    -0.990113    0.662111   -0.279805    0.030766   -0.093237   -1.123702
C     0.194466    1.408516   -0.134719    0.001849   -0.006864   -0.084226
O    -2.276387   -1.190486    0.153462   -0.020325    0.062289    0.752803
O     0.159864    2.652079   -0.152200   -0.011372    0.036579    0.435909
H     2.075266   -1.429442    0.176081   -0.001759    0.005397    0.063434
H    -1.853901    1.198648   -0.333463    0.028255   -0.085480   -1.029782
H     2.341952    1.044045    0.109728   -0.023964    0.070029    0.840324
11
* Frequency(6)  165.7873
C     1.356085    0.573853   -0.002792   -0.008365    0.023985    0.291298
C     1.179238   -0.796770    0.087523    0.000364   -0.001486   -0.018261
N     0.008595   -1.455664    0.096801    0.006681   -0.020308   -0.243671
C    -1.131117   -0.715575    0.008909    0.004490   -0.014073   -0.167028
N    -0.993466    0.672271   -0.157351    0.030766   -0.093237   -1.123702
C     0.194264    1.409264   -0.125541    0.001849   -0.006864   -0.084226
O    -2.274172   -1.197274    0.071426   -0.020325    0.062289    0.752803
O     0.161103    2.648093   -0.199702   -0.011372    0.036579    0.435909
H     2.075458   -1.430030    0.169169   -0.001759    0.005397    0.063434
H    -1.856980    1.207963   -0.221244    0.028255   -0.085480   -1.029782
H     2.344564    1.036414    0.018155   -0.023964    0.070029    0.840324
11
* Frequency(6)  165.7873
C     1.357048    0.571090   -0.036355   -0.008365    0.023985    0.291298
C     1.179196   -0.796599    0.089627    0.000364   -0.001486   -0.018261
N     0.007825   -1.453324    0.124875    0.006681   -0.020308   -0.243671
C    -1.131634   -0.713953    0.028154    0.004490   -0.014073   -0.167028
N    -0.997011    0.683014   -0.027883    0.030766   -0.093237   -1.123702
C     0.194051    1.410055   -0.115837    0.001849   -0.006864   -0.084226
O    -2.271830   -1.204451   -0.015309   -0.020325    0.062289    0.752803
O     0.162413    2.643878   -0.249926   -0.011372    0.036579    0.435909
H     2.075661   -1.430652    0.161860   -0.001759    0.005397    0.063434
H    -1.860236    1.217812   -0.102596    0.028255   -0.085480   -1.029782
H     2.347325    1.028345   -0.078664   -0.023964    0.070029    0.840324
11
* Frequency(6)  165.7873
C     1.357960    0.568476   -0.068099   -0.008365    0.023985    0.291298
C     1.179156   -0.796437    0.091617    0.000364   -0.001486   -0.018261
N     0.007097   -1.451111    0.151429    0.006681   -0.020308   -0.243671
C    -1.132124   -0.712420    0.046356    0.004490   -0.014073   -0.167028
N    -1.000363    0.693174    0.094571    0.030766   -0.093237   -1.123702
C     0.193850    1.410803   -0.106658    0.001849   -0.006864   -0.084226
O    -2.269615   -1.211239   -0.097344   -0.020325    0.062289    0.752803
O     0.163652    2.639892   -0.297428   -0.011372    0.036579    0.435909
H     2.075853   -1.431240    0.154948   -0.001759    0.005397    0.063434
H    -1.863315    1.227127    0.009623    0.028255   -0.085480   -1.029782
H     2.349936    1.020714   -0.170237   -0.023964    0.070029    0.840324
11
* Frequency(6)  165.7873
C     1.358721    0.566296   -0.094584   -0.008365    0.023985    0.291298
C     1.179123   -0.796302    0.093278    0.000364   -0.001486   -0.018261
N     0.006490   -1.449265    0.173584    0.006681   -0.020308   -0.243671
C    -1.132532   -0.711140    0.061542    0.004490   -0.014073   -0.167028
N    -1.003161    0.701651    0.196740    0.030766   -0.093237   -1.123702
C     0.193681    1.411427   -0.099000    0.001849   -0.006864   -0.084226
O    -2.267767   -1.216902   -0.165790   -0.020325    0.062289    0.752803
O     0.164686    2.636566   -0.337062   -0.011372    0.036579    0.435909
H     2.076013   -1.431731    0.149180   -0.001759    0.005397    0.063434
H    -1.865884    1.234899    0.103252    0.028255   -0.085480   -1.029782
H     2.352115    1.014347   -0.246641   -0.023964    0.070029    0.840324
11
* Frequency(6)  165.7873
C     1.359248    0.564784   -0.112941   -0.008365    0.023985    0.291298
C     1.179100   -0.796208    0.094428    0.000364   -0.001486   -0.018261
N     0.006069   -1.447985    0.188940    0.006681   -0.020308   -0.243671
C    -1.132815   -0.710254    0.072068    0.004490   -0.014073   -0.167028
N    -1.005100    0.707527    0.267553    0.030766   -0.093237   -1.123702
C     0.193565    1.411860   -0.093693    0.001849   -0.006864   -0.084226
O    -2.266486   -1.220827   -0.213230   -0.020325    0.062289    0.752803
O     0.165403    2.634261   -0.364532   -0.011372    0.036579    0.435909
H     2.076123   -1.432071    0.145183   -0.001759    0.005397    0.063434
H    -1.867664    1.240286    0.168146    0.028255   -0.085480   -1.029782
H     2.353625    1.009933   -0.299596   -0.023964    0.070029    0.840324
11
* Frequency(6)  165.7873
C     1.359484    0.564106   -0.121180   -0.008365    0.023985    0.291298
C     1.179090   -0.796166    0.094945    0.000364   -0.001486   -0.018261
N     0.005880   -1.447411    0.195832    0.006681   -0.020308   -0.243671
C    -1.132942   -0.709856    0.076792    0.004490   -0.014073   -0.167028
N    -1.005970    0.710164    0.299336    0.030766   -0.093237   -1.123702
C     0.193513    1.412054   -0.091310    0.001849   -0.006864   -0.084226
O    -2.265912   -1.222589   -0.234522   -0.020325    0.062289    0.752803
O     0.165725    2.633227   -0.376861   -0.011372    0.036579    0.435909
H     2.076173   -1.432223    0.143389   -0.001759    0.005397    0.063434
H    -1.868464    1.242704    0.197272    0.028255   -0.085480   -1.029782
H     2.354303    1.007953   -0.323363   -0.023964    0.070029    0.840324
11
* Frequency(6)  165.7873
C     1.359405    0.564334   -0.118408   -0.008365    0.023985    0.291298
C     1.179094   -0.796181    0.094771    0.000364   -0.001486   -0.018261
N     0.005943   -1.447604    0.193513    0.006681   -0.020308   -0.243671
C    -1.132899   -0.709989    0.075203    0.004490   -0.014073   -0.167028
N    -1.005677    0.709277    0.288644    0.030766   -0.093237   -1.123702
C     0.193530    1.411988   -0.092112    0.001849   -0.006864   -0.084226
O    -2.266105   -1.221997   -0.227360   -0.020325    0.062289    0.752803
O     0.165617    2.633575   -0.372714   -0.011372    0.036579    0.435909
H     2.076156   -1.432172    0.143992   -0.001759    0.005397    0.063434
H    -1.868195    1.241890    0.187475    0.028255   -0.085480   -1.029782
H     2.354075    1.008619   -0.315368   -0.023964    0.070029    0.840324
11
* Frequency(6)  165.7873
C     1.359018    0.565444   -0.104926   -0.008365    0.023985    0.291298
C     1.179110   -0.796249    0.093926    0.000364   -0.001486   -0.018261
N     0.006252   -1.448544    0.182236    0.006681   -0.020308   -0.243671
C    -1.132691   -0.710641    0.067472    0.004490   -0.014073   -0.167028
N    -1.004253    0.704962    0.236637    0.030766   -0.093237   -1.123702
C     0.193616    1.411671   -0.096010    0.001849   -0.006864   -0.084226
O    -2.267046   -1.219114   -0.192519   -0.020325    0.062289    0.752803
O     0.165090    2.635268   -0.352539   -0.011372    0.036579    0.435909
H     2.076075   -1.431922    0.146928   -0.001759    0.005397    0.063434
H    -1.866887    1.237934    0.139814    0.028255   -0.085480   -1.029782
H     2.352966    1.011860   -0.276476   -0.023964    0.070029    0.840324
11
* Frequency(6)  165.7873
C     1.358365    0.567316   -0.082195   -0.008365    0.023985    0.291298
C     1.179139   -0.796365    0.092501    0.000364   -0.001486   -0.018261
N     0.006774   -1.450128    0.163221    0.006681   -0.020308   -0.243671
C    -1.132341   -0.711739    0.054438    0.004490   -0.014073   -0.167028
N    -1.001852    0.697686    0.148950    0.030766   -0.093237   -1.123702
C     0.193760    1.411135   -0.102582    0.001849   -0.006864   -0.084226
O    -2.268632   -1.214253   -0.133775   -0.020325    0.062289    0.752803
O     0.164203    2.638122   -0.318523   -0.011372    0.036579    0.435909
H     2.075938   -1.431501    0.151878   -0.001759    0.005397    0.063434
H    -1.864682    1.231264    0.059457    0.028255   -0.085480   -1.029782
H     2.351096    1.017325   -0.210903   -0.023964    0.070029    0.840324
11
* Frequency(6)  165.7873
C     1.357517    0.569746   -0.052678   -0.008365    0.023985    0.291298
C     1.179176   -0.796516    0.090651    0.000364   -0.001486   -0.018261
N     0.007451   -1.452186    0.138530    0.006681   -0.020308   -0.243671
C    -1.131886   -0.713165    0.037514    0.004490   -0.014073   -0.167028
N    -0.998735    0.688238    0.035086    0.030766   -0.093237   -1.123702
C     0.193947    1.410440   -0.111117    0.001849   -0.006864   -0.084226
O    -2.270691   -1.207941   -0.057493   -0.020325    0.062289    0.752803
O     0.163051    2.641828   -0.274353   -0.011372    0.036579    0.435909
H     2.075759   -1.430954    0.158306   -0.001759    0.005397    0.063434
H    -1.861819    1.222602   -0.044891    0.028255   -0.085480   -1.029782
H     2.348668    1.024421   -0.125753   -0.023964    0.070029    0.840324
11
* Frequency(6)  165.7873
C     1.356566    0.572472   -0.019574   -0.008365    0.023985    0.291298
C     1.179217   -0.796685    0.088575    0.000364   -0.001486   -0.018261
N     0.008210   -1.454494    0.110838    0.006681   -0.020308   -0.243671
C    -1.131376   -0.714764    0.018532    0.004490   -0.014073   -0.167028
N    -0.995238    0.677642   -0.092617    0.030766   -0.093237   -1.123702
C     0.194158    1.409660   -0.120689    0.001849   -0.006864   -0.084226
O    -2.273001   -1.200862    0.028059   -0.020325    0.062289    0.752803
O     0.161758    2.645985   -0.224814   -0.011372    0.036579    0.435909
H     2.075560   -1.430341    0.165515   -0.001759    0.005397    0.063434
H    -1.858608    1.212888   -0.161920    0.028255   -0.085480   -1.029782
H     2.345944    1.032379   -0.030255   -0.023964    0.070029    0.840324
