3
* (null), Energy   -1000.0000000
O    -0.046341    0.043992   -0.014010    0.100920   -0.095799    0.030510
H     0.907825    0.167403   -0.053315   -0.205468    1.329769   -0.423507
H    -0.172292   -0.865638    0.275690   -1.396341    0.190753   -0.060751
3
* Frequency(6) 1616.0443
O    -0.034872    0.033104   -0.010543    0.100920   -0.095799    0.030510
H     0.884475    0.318525   -0.101444   -0.205468    1.329769   -0.423507
H    -0.330979   -0.843960    0.268786   -1.396341    0.190753   -0.060751
3
* Frequency(6) 1616.0443
O    -0.024646    0.023397   -0.007452    0.100920   -0.095799    0.030510
H     0.863655    0.453270   -0.144358   -0.205468    1.329769   -0.423507
H    -0.472470   -0.824631    0.262630   -1.396341    0.190753   -0.060751
3
* Frequency(6) 1616.0443
O    -0.016771    0.015922   -0.005071    0.100920   -0.095799    0.030510
H     0.847621    0.557037   -0.177406   -0.205468    1.329769   -0.423507
H    -0.581432   -0.809746    0.257889   -1.396341    0.190753   -0.060751
3
* Frequency(6) 1616.0443
O    -0.012100    0.011488   -0.003659    0.100920   -0.095799    0.030510
H     0.838112    0.618581   -0.197006   -0.205468    1.329769   -0.423507
H    -0.646057   -0.800917    0.255077   -1.396341    0.190753   -0.060751
3
* Frequency(6) 1616.0443
O    -0.011140    0.010576   -0.003368    0.100920   -0.095799    0.030510
H     0.836157    0.631233   -0.201036   -0.205468    1.329769   -0.423507
H    -0.659342   -0.799102    0.254499   -1.396341    0.190753   -0.060751
3
* Frequency(6) 1616.0443
O    -0.013994    0.013286   -0.004231    0.100920   -0.095799    0.030510
H     0.841968    0.593622   -0.189057   -0.205468    1.329769   -0.423507
H    -0.619848   -0.804498    0.256218   -1.396341    0.190753   -0.060751
3
* Frequency(6) 1616.0443
O    -0.020354    0.019323   -0.006154    0.100920   -0.095799    0.030510
H     0.854916    0.509823   -0.162369   -0.205468    1.329769   -0.423507
H    -0.531855   -0.816518    0.260046   -1.396341    0.190753   -0.060751
3
* Frequency(6) 1616.0443
O    -0.029530    0.028033   -0.008928    0.100920   -0.095799    0.030510
H     0.873598    0.388918   -0.123863   -0.205468    1.329769   -0.423507
H    -0.404897   -0.833862    0.265570   -1.396341    0.190753   -0.060751
3
* Frequency(6) 1616.0443
O    -0.040528    0.038473   -0.012253    0.100920   -0.095799    0.030510
H     0.895988    0.244009   -0.077712   -0.205468    1.329769   -0.423507
H    -0.252733   -0.854649    0.272190   -1.396341    0.190753   -0.060751
3
* Frequency(6) 1616.0443
O    -0.052155    0.049510   -0.015768    0.100920   -0.095799    0.030510
H     0.919662    0.090798   -0.028917   -0.205468    1.329769   -0.423507
H    -0.091852   -0.876627    0.279189   -1.396341    0.190753   -0.060751
3
* Frequency(6) 1616.0443
O    -0.063153    0.059950   -0.019093    0.100920   -0.095799    0.030510
H     0.942052   -0.054112    0.017234   -0.205468    1.329769   -0.423507
H     0.060312   -0.897414    0.285810   -1.396341    0.190753   -0.060751
3
* Frequency(6) 1616.0443
O    -0.072329    0.068660   -0.021867    0.100920   -0.095799    0.030510
H     0.960734   -0.175017    0.055740   -0.205468    1.329769   -0.423507
H     0.187270   -0.914758    0.291333   -1.396341    0.190753   -0.060751
3
* Frequency(6) 1616.0443
O    -0.078688    0.074697   -0.023790    0.100920   -0.095799    0.030510
H     0.973682   -0.258815    0.082428   -0.205468    1.329769   -0.423507
H     0.275264   -0.926778    0.295162   -1.396341    0.190753   -0.060751
3
* Frequency(6) 1616.0443
O    -0.081543    0.077407   -0.024653    0.100920   -0.095799    0.030510
H     0.979493   -0.296426    0.094406   -0.205468    1.329769   -0.423507
H     0.314758   -0.932174    0.296880   -1.396341    0.190753   -0.060751
3
* Frequency(6) 1616.0443
O    -0.080583    0.076495   -0.024362    0.100920   -0.095799    0.030510
H     0.977538   -0.283774    0.090377   -0.205468    1.329769   -0.423507
H     0.301472   -0.930359    0.296302   -1.396341    0.190753   -0.060751
3
* Frequency(6) 1616.0443
O    -0.075912    0.072061   -0.022950    0.100920   -0.095799    0.030510
H     0.968029   -0.222230    0.070776   -0.205468    1.329769   -0.423507
H     0.236847   -0.921530    0.293490   -1.396341    0.190753   -0.060751
3
* Frequency(6) 1616.0443
O    -0.068037    0.064586   -0.020569    0.100920   -0.095799    0.030510
H     0.951995   -0.118463    0.037728   -0.205468    1.329769   -0.423507
H     0.127885   -0.906645    0.288750   -1.396341    0.190753   -0.060751
3
* Frequency(6) 1616.0443
O    -0.057811    0.054879   -0.017478    0.100920   -0.095799    0.030510
H     0.931175    0.016282   -0.005185   -0.205468    1.329769   -0.423507
H    -0.013606   -0.887316    0.282594   -1.396341    0.190753   -0.060751
3
* Frequency(6) 1616.0443
O    -0.046341    0.043992   -0.014010    0.100920   -0.095799    0.030510
H     0.907825    0.167403   -0.053315   -0.205468    1.329769   -0.423507
H    -0.172292   -0.865638    0.275690   -1.396341    0.190753   -0.060751
