
                                 *****************
                                 * O   R   C   A *
                                 *****************

                                            #,                                       
                                            ###                                      
                                            ####                                     
                                            #####                                    
                                            ######                                   
                                           ########,                                 
                                     ,,################,,,,,                         
                               ,,#################################,,                 
                          ,,##########################################,,             
                       ,#########################################, ''#####,          
                    ,#############################################,,   '####,        
                  ,##################################################,,,,####,       
                ,###########''''           ''''###############################       
              ,#####''   ,,,,##########,,,,          '''####'''          '####       
            ,##' ,,,,###########################,,,                        '##       
           ' ,,###''''                  '''############,,,                           
         ,,##''                                '''############,,,,        ,,,,,,###''
      ,#''                                            '''#######################'''  
     '                                                          ''''####''''         
             ,#######,   #######,   ,#######,      ##                                
            ,#'     '#,  ##    ##  ,#'     '#,    #''#        ,####,    ,#,          
            ##       ##  ##   ,#'  ##            #'  '#       #'       ,# #          
            ##       ##  #######   ##           ,######,      #####,      #          
            '#,     ,#'  ##    ##  '#,     ,#' ,#      #,     #,   #      #          
             '#######'   ##     ##  '#######'  #'      '#     '####' #    #          



                #########################################################
                #                        -***-                          #
                #          Department of theory and spectroscopy        #
                #                                                       #
                #                      Frank Neese                      #
                #                                                       #
                #     Directorship, Architecture, Infrastructure        #
                #                    SHARK, DRIVERS                     #
                #        Core code/Algorithms in most modules           #
                #                                                       #
                #        Max Planck Institute fuer Kohlenforschung      #
                #                Kaiser Wilhelm Platz 1                 #
                #                 D-45470 Muelheim/Ruhr                 #
                #                      Germany                          #
                #                                                       #
                #                  All rights reserved                  #
                #                        -***-                          #
                #########################################################


                         Program Version 6.1.0  -  RELEASE   -


 With contributions from (in alphabetic order):
[Max-Planck-Institut fuer Kohlenforschung]                               
  Daniel Aravena         : Magnetic Suceptibility                        
  Michael Atanasov       : Ab Initio Ligand Field Theory (pilot matlab implementation)
  Alexander A. Auer      : GIAO ZORA, VPT2 properties, NMR spectrum      
  Ute Becker             : All parallelization in ORCA, NUMFREQ, NUMCALC 
  Giovanni Bistoni       : ED, misc. LED, open-shell LED, HFLD           
  Dmytro Bykov           : pre 5.0 version of the SCF Hessian            
  Marcos Casanova-P??ez   : Triplet and SCS-CIS(D). UHF-(DLPNO)-IP/EA/STEOM-CCSD. UHF-CVS-IP/STEOM-CCSD   
  Vijay G. Chilkuri      : MRCI spin determinant printing, contributions to CSF-ICE 
  Pauline Colinet        : FMM embedding                                 
  Dipayan Datta          : RHF DLPNO-CCSD density                        
  Achintya Kumar Dutta   : EOM-CC, STEOM-CC                              
  Nicolas Foglia         : Exact transition moments, OPA infrastructure, MCD improvements    
  Dmitry Ganyushin       : Spin-Orbit,Spin-Spin,Magnetic field MRCI      
  Miquel Garcia-Rates    : C-PCM and meta-GGA Hessian, CCSD/C-PCM, Gaussian charge scheme 
  Tiago L. C. Gouveia    : GS-ROHF, GS-ROCIS                             
  Yang Guo               : DLPNO-NEVPT2, F12-NEVPT2, CIM, IAO-localization        
  Andreas Hansen         : Spin unrestricted coupled pair/coupled cluster methods 
  Ingolf Harden          : AUTO-CI MPn and infrastructure                
  Benjamin Helmich-Paris : MC-RPA, TRAH-(SCF,CASSCF), AVAS, COSX integrals, SCF dyn. polar., MC-PDFT, srDFT 
  Lee Huntington         : MR-EOM, pCC                                   
  Robert Izsak           : Overlap fitted RIJCOSX, COSX-SCS-MP3, EOM     
  Riya Kayal             : Wick's Theorem for AUTO-CI, AUTO-CI UHF-CCSDT 
  Emily Kempfer          : AUTO-CI RHF CISDT and CCSDT, approximate NEVPT4
  Christian Kollmar      : KDIIS, OOCD, Brueckner-CCSD(T), CCSD density, CASPT2, CASPT2-K, improved NEVPT2 
  Axel Koslowski         : Symmetry handling                             
  Simone Kossmann        : meta-GGA functionals, TD-DFT gradient, OOMP2, (MP2 Hessian; deprecated post 5.0) 
  Lucas Lang             : DCDCAS, Hyperfine gauge corrections, ICE-SOC+SSC
  Marvin Lechner         : AUTO-CI (C++ implementation), FIC-MRCC        
  Spencer Leger          : CASSCF response                               
  Dagmar Lenk            : GEPOL surface, SMD, ORCA-2-JSON               
  Dimitrios Liakos       : Extrapolation schemes; Compound Job, Property file
  Dimitrios Manganas     : Further ROCIS development; embedding schemes. LFT, Crystal Embedding 
  Dimitrios Pantazis     : SARC Basis sets                               
  Anastasios Papadopoulos: AUTO-CI, single reference methods and gradients 
  Taras Petrenko         : pre 6.0 DFT Hessian and TD-DFT gradient,  ECA, NRVS 
  Petra Pikulova         : Analytic Raman intensities                    
  Peter Pinski           : DLPNO-MP2, DLPNO-MP2 Gradient                 
  Shashank Vittal Rao    : ES-AILFT, MagRelax                            
  Christoph Reimann      : Effective Core Potentials                     
  Marius Retegan         : Local ZFS, SOC                                
  Christoph Riplinger    : Optimizer, TS searches, QM/MM, DLPNO-CCSD(T), (RO)-DLPNO pert. Triples 
  Michael Roemelt        : Original ROCIS implementation, recursive CI coupling coefficients
  Masaaki Saitow         : Open-shell DLPNO-CCSD energy and density      
  Barbara Sandhoefer     : DKH picture change effects                    
  Yorick L. A. Schmerwitz: GMF and freeze-and-release deltaSCF, NEB S-IDPP initial path                    
  Kantharuban Sivalingam : CASSCF convergence/infrastructure, NEVPT2, NEVPT3, NEVPT4(SD), FIC-MRCI and CEPA variants
  Bernardo de Souza      : ESD, SOC TD-DFT                               
  Georgi L. Stoychev     : AutoAux, RI-MP2 NMR, DLPNO-MP2 response, X2C  
  Van Anh Tran           : RI-MP2 g-tensors                              
  Willem Van den Heuvel  : Paramagnetic NMR                              
  Zikuan Wang            : NOTCH, Electric field optimization            
  Frank Wennmohs         : Technical directorship and infrastructure     
  Hang Xu                : AUTO-CI-Response properties                   
                                                                         
[FACCTs GmbH]                                                            
  Markus Bursch, Nicolas Foglia, Miquel Garcia-Rates, Ingolf Harden, Hagen Neugebauer, Anastasios Papadopoulos, 
  Christoph Riplinger, Bernardo de Souza, Georgi L. Stoychev                                                    
                                                                 
  APM, various basis sets, CI-OPT, improved COSX, DLPNO-Multilevel,           
  DOCKER, DRACO, updates on ESD, Fragmentator, GOAT, IRC, LR-CPCM, L-BFGS, MBIS, meta-GGA TD-DFT gradient, ML-optimized integration grids, 
  MM, NACMEs, nearIR, NEB, NEB-TS, NL-DFT gradient (VV10), 2- and 3-layer-ONIOM, interface openCOSMO-RS, QMMM,   
  Crystal-QMMM, RESP, rigid body optimization, SF, symmetry and pop. for TD-DFT, various functionals, SOLVATOR                                   
                                                                         
[Other institutions]                                                     
  V. Asgeirsson          : NEB                                           
  Christoph Bannwarth    : sTDA-DFT, sTD-DFT, PBEh-3c, B97-3c, D3        
  Giovanni Bistoni       : ETS/NOCV, ADLD/ADEX, COVALED                  
  Martin Brehm           : Molecular dynamics                            
  Ronald Cardenas        : ETS/NOCV                                      
  Martina Colucci        : COVALED                                       
  Sebastian Ehlert       : rSCAN, r2SCAN, r2SCAN-3c, D4, dhf basis sets  
  Marvin Friede          : D4 for Fr, Ra, Ac-Lr                          
  Lars Goerigk           : TD-DFT with DH, B97 family of functionals     
  Stefan Grimme          : VdW corrections, initial TS optimization, DFT functionals, gCP, sTDA/sTD-DF 
  Waldemar Hujo          : DFT-NL                                        
  H. Jonsson             : NEB                                           
  Holger Kruse           : gCP                                           
  Marcel Mueller         : wB97X-3c, vDZP basis set                      
  Hagen Neugebauer       : wr2SCAN, Native XTB                           
  Gianluca Regni         : ADLD/ADEX                                     
  Tobias Risthaus        : pre 6.0 range-separated hybrid DFT and stability analysis
  Lukas Wittmann         : regularized MP2, r2SCAN double-hybrids, wr2SCAN        
                                                                         
We gratefully acknowledge several colleagues who have allowed us to      
interface, adapt or use parts of their codes:                            
  Ed Valeev, F. Pavosevic, A. Kumar             : LibInt (2-el integral package), F12 methods 
  Garnet Chan, S. Sharma, J. Yang, R. Olivares  : DMRG                   
  Ulf Ekstrom                                   : XCFun DFT Library      
  Mihaly Kallay                                 : mrcc  (arbitrary order and MRCC methods)
  Frank Weinhold                                : gennbo (NPA and NBO analysis)           
  Simon Mueller                                 : openCOSMO-RS                            
  Christopher J. Cramer and Donald G. Truhlar   : smd solvation model                     
  S Lehtola, MJT Oliveira, MAL Marques          : LibXC Library                           
  Liviu Ungur et al                             : ANISO software                          


 Your calculation uses the libint2 library for the computation of 2-el integrals
 For citations please refer to: http://libint.valeyev.net

 Your ORCA version has been built with support for libXC version: 7.0.0
 For citations please refer to: https://libxc.gitlab.io

 This ORCA versions uses:
   CBLAS   interface :  Fast vector & matrix operations
   LAPACKE interface :  Fast linear algebra routines
   Shared memory     :  Shared parallel matrices


  ***********************************
  * Starting time: Tue Jul 15 18:30:56 2025
  * Host name:     VITOR
  * Process ID:    15488
  * Working dir.:  C:\Orca\test_run\AcOH\AcOH_verytight
  ***********************************

Warning: RI is on but no J-basis has been assigned. Assigning Def2/J (nothing to worry about!)
================================================================================

----- Orbital basis set information -----
Your calculation utilizes the basis: def2-SVP
   F. Weigend and R. Ahlrichs, Phys. Chem. Chem. Phys. 7, 3297 (2005).

----- AuxJ basis set information -----
Your calculation utilizes the auxiliary basis: def2/J
   H-Rn: F. Weigend, Phys. Chem. Chem. Phys. 8, 1057 (2006).
   Fr-Lr: K. Eichkorn, F. Weigend, O. Treutler, R. Ahlrichs; Theor. Chem. Acc. 97, 119 (1997).

================================================================================
                                        WARNINGS
                       Please study these warnings very carefully!
================================================================================


WARNING: Geometry Optimization
  ===> : Switching off AutoStart
         For restart on a previous wavefunction, please use MOREAD

================================================================================
                                       INPUT FILE
================================================================================
NAME = .\AcOH.inp
|  1> !B3LYP DEF2-SVP FREQ

|  2> !VERYTIGHTOPT

|  3> * XYZ 0 1

|  4> C         -8.23508        1.75252       -0.00446

|  5> C         -6.80437        2.18360        0.03487

|  6> H         -8.30301        0.65382       -0.15041

|  7> H         -8.75566        2.25995       -0.84350

|  8> H         -8.73273        2.02013        0.95115

|  9> O         -6.52860        3.36373        0.18904

| 10> O         -5.82021        1.26961       -0.09983

| 11> H         -4.88856        1.53058       -0.07686

| 12> **                         ****END OF INPUT****
================================================================================

                       *****************************
                       * Geometry Optimization Run *
                       *****************************

Geometry optimization settings:
Update method            Update   .... BFGS
Choice of coordinates    CoordSys .... (2022) Redundant Internals
Initial Hessian          InHess   .... Almloef's Model
Max. no of cycles        MaxIter  .... 50

Convergence Tolerances:
Energy Change            TolE     ....  2.0000e-07 Eh
Max. Gradient            TolMAXG  ....  3.0000e-05 Eh/bohr
RMS Gradient             TolRMSG  ....  8.0000e-06 Eh/bohr
Max. Displacement        TolMAXD  ....  2.0000e-04 bohr
RMS Displacement         TolRMSD  ....  1.0000e-04 bohr
Strict Convergence                .... False

------------------------------------------------------------------------------
                        ORCA OPTIMIZATION COORDINATE SETUP
------------------------------------------------------------------------------

The optimization will be done in redundant internal coordinates (2022)
Making redundant internal coordinates   ...  (2022 redundants) done
Evaluating the initial hessian          ...  (Almloef) done
Evaluating the coordinates              ...  done
Calculating the B-matrix                .... done
Calculating the G-matrix                .... done
The number of degrees of freedom        ....   24

    -----------------------------------------------------------------
                    Redundant Internal Coordinates


    -----------------------------------------------------------------
         Definition                    Initial Value    Approx d2E/dq
    -----------------------------------------------------------------
      1. B(C   1,C   0)                  1.4948         0.425207   
      2. B(H   2,C   0)                  1.1104         0.334061   
      3. B(H   3,C   0)                  1.1102         0.334383   
      4. B(H   4,C   0)                  1.1102         0.334391   
      5. B(O   5,C   1)                  1.2217         1.038496   
      6. B(O   6,C   1)                  1.3498         0.648535   
      7. B(H   7,O   6)                  0.9678         0.505299   
      8. A(C   1,C   0,H   2)          110.3259         0.327234   
      9. A(C   1,C   0,H   4)          109.6876         0.327287   
     10. A(H   2,C   0,H   4)          108.9185         0.284140   
     11. A(C   1,C   0,H   3)          109.6878         0.327286   
     12. A(H   3,C   0,H   4)          109.2796         0.284183   
     13. A(H   2,C   0,H   3)          108.9186         0.284139   
     14. A(C   0,C   1,O   5)          119.8651         0.442138   
     15. A(O   5,C   1,O   6)          120.1383         0.474346   
     16. A(C   0,C   1,O   6)          119.9966         0.406442   
     17. A(C   1,O   6,H   7)          121.1254         0.371162   
     18. D(O   5,C   1,C   0,H   3)     60.0154         0.013360   
     19. D(O   5,C   1,C   0,H   2)    179.9996         0.013360   
     20. D(O   6,C   1,C   0,H   2)     -0.0003         0.013360   
     21. D(O   6,C   1,C   0,H   3)   -119.9845         0.013360   
     22. D(O   5,C   1,C   0,H   4)    -60.0163         0.013360   
     23. D(H   7,O   6,C   1,O   5)     -0.0001         0.031073   
     24. D(H   7,O   6,C   1,C   0)    179.9998         0.031073   
    -----------------------------------------------------------------

Number of atoms                         .... 8
Number of degrees of freedom            .... 24


         *************************************************************
         *                GEOMETRY OPTIMIZATION CYCLE   1            *
         *************************************************************
---------------------------------
CARTESIAN COORDINATES (ANGSTROEM)
---------------------------------
  C     -8.235080    1.752520   -0.004460
  C     -6.804370    2.183600    0.034870
  H     -8.303010    0.653820   -0.150410
  H     -8.755660    2.259950   -0.843500
  H     -8.732730    2.020130    0.951150
  O     -6.528600    3.363730    0.189040
  O     -5.820210    1.269610   -0.099830
  H     -4.888560    1.530580   -0.076860

----------------------------
CARTESIAN COORDINATES (A.U.)
----------------------------
  NO LB      ZA    FRAG     MASS         X           Y           Z
   0 C     6.0000    0    12.011  -15.562046    3.311783   -0.008428
   1 C     6.0000    0    12.011  -12.858396    4.126406    0.065895
   2 H     1.0000    0     1.008  -15.690415    1.235541   -0.284234
   3 H     1.0000    0     1.008  -16.545800    4.270687   -1.593984
   4 H     1.0000    0     1.008  -16.502468    3.817492    1.797413
   5 O     8.0000    0    15.999  -12.337266    6.356528    0.357234
   6 O     8.0000    0    15.999  -10.998603    2.399215   -0.188651
   7 H     1.0000    0     1.008   -9.238040    2.892377   -0.145244

--------------------------------
INTERNAL COORDINATES (ANGSTROEM)
--------------------------------
 C      0   0   0     0.000000000000     0.00000000     0.00000000
 C      1   0   0     1.494760154473     0.00000000     0.00000000
 H      1   2   0     1.110431257395   110.32585013     0.00000000
 H      1   2   3     1.110169745084   109.68778877   240.01575460
 H      1   2   3     1.110162648759   109.68762061   119.98408548
 O      2   1   3     1.221689117042   119.86512789   179.99964557
 O      2   1   3     1.349849145534   119.99661076     0.00000000
 H      7   2   1     0.967783387076   121.12537532   179.99978854

---------------------------
INTERNAL COORDINATES (A.U.)
---------------------------
 C      0   0   0     0.000000000000     0.00000000     0.00000000
 C      1   0   0     2.824687327852     0.00000000     0.00000000
 H      1   2   0     2.098410967023   110.32585013     0.00000000
 H      1   2   3     2.097916780374   109.68778877   240.01575460
 H      1   2   3     2.097903370263   109.68762061   119.98408548
 O      2   1   3     2.308657852002   119.86512789   179.99964557
 O      2   1   3     2.550845207168   119.99661076     0.00000000
 H      7   2   1     1.828845558532   121.12537532   179.99978854

---------------------
BASIS SET INFORMATION
---------------------
There are 3 groups of distinct atoms

 Group   1 Type C   : 7s4p1d contracted to 3s2p1d pattern {511/31/1}
 Group   2 Type H   : 4s1p contracted to 2s1p pattern {31/1}
 Group   3 Type O   : 7s4p1d contracted to 3s2p1d pattern {511/31/1}

Atom   0C    basis set group =>   1
Atom   1C    basis set group =>   1
Atom   2H    basis set group =>   2
Atom   3H    basis set group =>   2
Atom   4H    basis set group =>   2
Atom   5O    basis set group =>   3
Atom   6O    basis set group =>   3
Atom   7H    basis set group =>   2
---------------------------------
AUXILIARY/J BASIS SET INFORMATION
---------------------------------
There are 3 groups of distinct atoms

 Group   1 Type C   : 12s5p4d2f1g contracted to 6s4p3d1f1g pattern {711111/2111/211/2/1}
 Group   2 Type H   : 5s2p1d contracted to 3s1p1d pattern {311/2/1}
 Group   3 Type O   : 12s5p4d2f1g contracted to 6s4p3d1f1g pattern {711111/2111/211/2/1}

Atom   0C    basis set group =>   1
Atom   1C    basis set group =>   1
Atom   2H    basis set group =>   2
Atom   3H    basis set group =>   2
Atom   4H    basis set group =>   2
Atom   5O    basis set group =>   3
Atom   6O    basis set group =>   3
Atom   7H    basis set group =>   2
------------------------------------------------------------------------------
                             ORCA STARTUP CALCULATIONS
                           -- RI-GTO INTEGRALS CHOSEN --
------------------------------------------------------------------------------
------------------------------------------------------------------------------
                   ___                                                        
                  /   \      - P O W E R E D   B Y -                         
                 /     \                                                     
                 |  |  |   _    _      __       _____    __    __             
                 |  |  |  | |  | |    /  \     |  _  \  |  |  /  |          
                  \  \/   | |  | |   /    \    | | | |  |  | /  /          
                 / \  \   | |__| |  /  /\  \   | |_| |  |  |/  /          
                |  |  |   |  __  | /  /__\  \  |    /   |      \           
                |  |  |   | |  | | |   __   |  |    \   |  |\   \          
                \     /   | |  | | |  |  |  |  | |\  \  |  | \   \       
                 \___/    |_|  |_| |__|  |__|  |_| \__\ |__|  \__/        
                                                                              
                      - O R C A' S   B I G   F R I E N D -                    
                                      &                                       
                       - I N T E G R A L  F E E D E R -                       
                                                                              
 v1 FN, 2020, v2 2021, v3 2022-2024                                           
------------------------------------------------------------------------------


----------------------
SHARK INTEGRAL PACKAGE
----------------------

Number of atoms                             ...      8
Number of basis functions                   ...     76
Number of shells                            ...     36
Maximum angular momentum                    ...      2
Integral batch strategy                     ... SHARK/LIBINT Hybrid
RI-J (if used) integral strategy            ... SPLIT-RIJ (Revised 2003 algorithm where possible)
Printlevel                                  ...      1
Contraction scheme used                     ... SEGMENTED contraction
Prescreening option                         ... SCHWARTZ
   Thresh                                   ... 1.000e-13
   Tcut                                     ... 1.000e-15
   Tpresel                                  ... 1.000e-15 
Coulomb Range Separation                    ... NOT USED
Exchange Range Separation                   ... NOT USED
Multipole approximations                    ... NOT USED
Finite Nucleus Model                        ... NOT USED
CABS basis                                  ... NOT available
Auxiliary Coulomb fitting basis             ... AVAILABLE
   # of basis functions in Aux-J            ...    240
   # of shells in Aux-J                     ...     80
   Maximum angular momentum in Aux-J        ...      4
Auxiliary J/K fitting basis                 ... NOT available
Auxiliary Correlation fitting basis         ... NOT available
Auxiliary 'external' fitting basis          ... NOT available

Checking pre-screening integrals            ... done (  0.0 sec) Dimension = 36
   => SHARK Basis and OBASIS are compatible. Storing Pre-screening
Shell pair information
Shell pair cut-off parameter TPreSel        ...   1.0e-15
Total number of shell pairs                 ...       666
Shell pairs after pre-screening             ...       663
Total number of primitive shell pairs       ...      2410
Primitive shell pairs kept                  ...      2032
          la=0 lb=0:    207 shell pairs
          la=1 lb=0:    240 shell pairs
          la=1 lb=1:     78 shell pairs
          la=2 lb=0:     80 shell pairs
          la=2 lb=1:     48 shell pairs
          la=2 lb=2:     10 shell pairs

Checking whether 4 symmetric matrices of dimension 76 fit in memory
:Max Core in MB      =   4096.00
 MB in use           =      3.93
 MB left             =   4092.07
 MB needed           =      0.09
 Data fit in memory  = YES
Calculating RI/J V-Matrix + Cholesky decomp.... done (  0.0 sec)
Calculating Nuclear repulsion               ... done (  0.0 sec) ENN=    120.306741731727 Eh

Diagonalization of the overlap matrix:
Smallest eigenvalue                        ... 3.443e-03
Time for diagonalization                   ...    0.009 sec
Threshold for overlap eigenvalues          ... 1.000e-07
Number of eigenvalues below threshold      ... 0
Time for construction of square roots      ...    0.002 sec
Total time needed                          ...    0.011 sec

-------------------
DFT GRID GENERATION
-------------------

General Integration Accuracy     IntAcc      ... 4.388
Radial Grid Type                 RadialGrid  ... OptM3 with GC (2021)
Angular Grid (max. ang.)         AngularGrid ... 4 (Lebedev-302)
Angular grid pruning method      GridPruning ... 4 (adaptive)
Weight generation scheme         WeightScheme... mBecke (2022)
Basis function cutoff            BFCut       ... 1.0000e-13
Integration weight cutoff        WCut        ... 1.0000e-14
Partially contracted basis set               ... off
Rotationally invariant grid construction     ... off
Angular grids for H and He will be reduced by one unit

Total number of grid points                  ...    37401
Total number of batches                      ...      588
Average number of points per batch           ...       63
Average number of grid points per atom       ...     4675

--------------------
COSX GRID GENERATION
--------------------

GRIDX 1
-------
General Integration Accuracy     IntAcc      ... 3.816
Radial Grid Type                 RadialGrid  ... OptM3 with GC (2021)
Angular Grid (max. ang.)         AngularGrid ... 1 (Lebedev-50)
Angular grid pruning method      GridPruning ... 4 (adaptive)
Weight generation scheme         WeightScheme... mBecke (2022)
Basis function cutoff            BFCut       ... 1.0000e-13
Integration weight cutoff        WCut        ... 1.0000e-14
Partially contracted basis set               ... on
Rotationally invariant grid construction     ... off
Angular grids for H and He will be reduced by one unit

Total number of grid points                  ...     4802
Total number of batches                      ...       42
Average number of points per batch           ...      114
Average number of grid points per atom       ...      600
UseSFitting                                  ... on

GRIDX 2
-------
General Integration Accuracy     IntAcc      ... 4.020
Radial Grid Type                 RadialGrid  ... OptM3 with GC (2021)
Angular Grid (max. ang.)         AngularGrid ... 2 (Lebedev-110)
Angular grid pruning method      GridPruning ... 4 (adaptive)
Weight generation scheme         WeightScheme... mBecke (2022)
Basis function cutoff            BFCut       ... 1.0000e-13
Integration weight cutoff        WCut        ... 1.0000e-14
Partially contracted basis set               ... on
Rotationally invariant grid construction     ... off
Angular grids for H and He will be reduced by one unit

Total number of grid points                  ...    10559
Total number of batches                      ...       87
Average number of points per batch           ...      121
Average number of grid points per atom       ...     1320
UseSFitting                                  ... on

GRIDX 3
-------
General Integration Accuracy     IntAcc      ... 4.338
Radial Grid Type                 RadialGrid  ... OptM3 with GC (2021)
Angular Grid (max. ang.)         AngularGrid ... 3 (Lebedev-194)
Angular grid pruning method      GridPruning ... 4 (adaptive)
Weight generation scheme         WeightScheme... mBecke (2022)
Basis function cutoff            BFCut       ... 1.0000e-13
Integration weight cutoff        WCut        ... 1.0000e-14
Partially contracted basis set               ... on
Rotationally invariant grid construction     ... off
Angular grids for H and He will be reduced by one unit

Total number of grid points                  ...    23312
Total number of batches                      ...      187
Average number of points per batch           ...      124
Average number of grid points per atom       ...     2914
UseSFitting                                  ... on
Grids setup in   0.4 sec
Initializing property integral containers    ... done (  0.0 sec)

SHARK setup successfully completed in   0.5 seconds

Maximum memory used throughout the entire STARTUP-calculation: 15.9 MB
-------------------------------------------------------------------------------
                                 ORCA GUESS
                   Start orbitals & Density for SCF / CASSCF
-------------------------------------------------------------------------------

------------
SCF SETTINGS
------------
Hamiltonian:
 Density Functional     Method          .... DFT(GTOs)
 Exchange Functional    Exchange        .... B88
   X-Alpha parameter    XAlpha          ....  0.666667
   Becke's b parameter  XBeta           ....  0.004200
 Correlation Functional Correlation     .... LYP
 LDA part of GGA corr.  LDAOpt          .... VWN-5
 Gradients option       PostSCFGGA      .... off
 Hybrid DFT is turned on
   Fraction HF Exchange ScalHFX         ....  0.200000
   Scaling of DF-GGA-X  ScalDFX         ....  0.720000
   Scaling of DF-GGA-C  ScalDFC         ....  0.810000
   Scaling of DF-LDA-C  ScalLDAC        ....  1.000000
   Perturbative correction              ....  0.000000
   NL short-range parameter             ....  4.800000
 RI-approximation to the Coulomb term is turned on
   Number of AuxJ basis functions       .... 240
   RIJ-COSX (HFX calculated with COS-X)).... on


General Settings:
 Integral files         IntName         .... .\AcOH
 Hartree-Fock type      HFTyp           .... RHF
 Total Charge           Charge          ....    0
 Multiplicity           Mult            ....    1
 Number of Electrons    NEL             ....   32
 Basis Dimension        Dim             ....   76
 Nuclear Repulsion      ENuc            ....    120.3067417317 Eh

Convergence Acceleration:
 AO-DIIS                CNVDIIS         .... on
   Start iteration      DIISMaxIt       ....    12
   Startup error        DIISStart       ....  0.200000
   # of expansion vecs  DIISMaxEq       ....     5
   Bias factor          DIISBfac        ....   1.050
   Max. coefficient     DIISMaxC        ....  10.000
 MO-DIIS                CNVKDIIS        .... off
 Trust-Rad. Augm. Hess. CNVTRAH         .... auto
   Auto Start mean grad. ratio tolernc. ....  1.125000
   Auto Start start iteration           ....    50
   Auto Start num. interpolation iter.  ....    10
   Max. Number of Micro iterations      ....    24
   Max. Number of Macro iterations      .... Maxiter - #DIIS iter
   Number of Davidson start vectors     ....     2
   Converg. threshold    (grad. norm)   ....   2.000e-07
   Grad. Scal. Fac. for Micro threshold ....   0.100
   Minimum threshold for Micro iter.    ....   1.000e-02
   NR start threshold (gradient norm)   ....   1.000e-04
   Initial trust radius                 ....   0.400
   Minimum AH scaling param. (alpha)    ....   1.000
   Maximum AH scaling param. (alpha)    .... 1000.000
   Quad. conv. algorithm                .... NR
   White noise on init. David. guess    .... on
   Maximum white noise                  ....   0.010
   Pseudo random numbers                .... off
   Inactive MOs                         .... canonical
   Orbital update algorithm             .... Taylor
   Preconditioner                       .... Diag
   Full preconditioner red. dimension   ....   250
 SOSCF                 CNVSOSCF           .... on
   Start iteration     SOSCFMaxIt         ....   150
   Startup grad/error  SOSCFStart         ....  0.003300
   Hessian update      SOSCFHessUp        .... L-BFGS
   Autom. constraints  SOSCFAutoConstrain .... off
 Level Shifting         CNVShift        .... on
   Level shift para.    LevelShift      ....    0.2500
   Turn off err/grad.   ShiftErr        ....    0.0010
 Zerner damping         CNVZerner       .... off
 Static damping         CNVDamp         .... on
   Fraction old density DampFac         ....    0.7000
   Max. Damping (<1)    DampMax         ....    0.9800
   Min. Damping (>=0)   DampMin         ....    0.0000
   Turn off err/grad.   DampErr         ....    0.1000

SCF Procedure:
 Maximum # iterations   MaxIter         ....   125
 SCF integral mode      SCFMode         .... Direct
   Integral package                     .... SHARK and LIBINT hybrid scheme
 Reset frequency        DirectResetFreq ....    20
 Integral Threshold     Thresh          ....  1.000e-13 Eh
 Primitive CutOff       TCut            ....  1.000e-15 Eh

Convergence Tolerance:
 Convergence Check Mode ConvCheckMode   .... Total+1el-Energy
 Convergence forced     ConvForced      .... 0
 Energy Change          TolE            ....  1.000e-10 Eh
 1-El. energy change                    ....  1.000e-07 Eh
 Orbital Gradient       TolG            ....  2.000e-07
 Orbital Rotation angle TolX            ....  2.000e-07
 DIIS Error             TolErr          ....  1.000e-09

------------------------------
INITIAL GUESS: MODEL POTENTIAL
------------------------------
Loading Hartree-Fock densities                     ... done
Calculating cut-offs                               ... done
Initializing the effective Hamiltonian             ... done
Setting up the integral package (SHARK)            ... done
Starting the Coulomb interaction                   ... done (   0.0 sec)
Making the grid                                    ... done (   0.1 sec)
Mapping shells                                     ... done
Starting the XC term evaluation                    ... done (   0.1 sec)
  promolecular density results
     # of electrons  =     31.998183889
     EX              =    -27.842491785
     EC              =     -1.095105255
     EX+EC           =    -28.937597040
Transforming the Hamiltonian                       ... done (   0.0 sec)
Diagonalizing the Hamiltonian                      ... done (   0.0 sec)
Back transforming the eigenvectors                 ... done (   0.0 sec)
Now organizing SCF variables                       ... done
                      ------------------
                      INITIAL GUESS DONE (   0.2 sec)
                      ------------------
             **** ENERGY FILE WAS UPDATED (.\AcOH.en.tmp) ****
Finished Guess after   0.3 sec
Maximum memory used throughout the entire GUESS-calculation: 7.2 MB

-------------------------------------------------------------------------------------------
                                      ORCA LEAN-SCF
                              memory conserving SCF solver
-------------------------------------------------------------------------------------------

----------------------------------------D-I-I-S--------------------------------------------
Iteration    Energy (Eh)           Delta-E    RMSDP     MaxDP     DIISErr   Damp  Time(sec)
-------------------------------------------------------------------------------------------
               ***  Starting incremental Fock matrix formation  ***
    1    -228.6040612803145677     0.00e+00  7.01e-03  1.07e-01  2.85e-01  0.700   7.2
    2    -228.6947267844185490    -9.07e-02  4.16e-03  6.26e-02  1.09e-01  0.700   0.4
                               ***Turning on AO-DIIS***
    3    -228.7247995650528765    -3.01e-02  1.36e-03  1.83e-02  4.10e-02  0.700   0.4
    4    -228.7441787414356327    -1.94e-02  1.96e-03  2.07e-02  1.80e-02  0.000   0.4
    5    -228.7880466522196912    -4.39e-02  5.37e-04  5.77e-03  9.35e-03  0.000   0.4
                              *** Initializing SOSCF ***
---------------------------------------S-O-S-C-F--------------------------------------
Iteration    Energy (Eh)           Delta-E    RMSDP     MaxDP     MaxGrad    Time(sec)
--------------------------------------------------------------------------------------
    6    -228.7883319233179122    -2.85e-04  1.60e-04  1.80e-03  1.73e-03     0.4
               *** Restarting incremental Fock matrix formation ***
    7    -228.7883294482300016     2.48e-06  1.14e-04  1.77e-03  3.04e-04     0.6
    8    -228.7883301841362140    -7.36e-07  4.23e-05  6.42e-04  3.74e-04     0.6
    9    -228.7883314087461599    -1.22e-06  3.15e-05  3.03e-04  1.75e-04     0.6
   10    -228.7883313543575241     5.44e-08  1.48e-05  3.07e-04  1.32e-04     0.6
   11    -228.7883316588358866    -3.04e-07  5.35e-06  7.22e-05  2.02e-05     0.6
   12    -228.7883316572027184     1.63e-09  2.53e-06  4.17e-05  3.06e-05     0.6
   13    -228.7883316643352600    -7.13e-09  6.79e-07  1.05e-05  1.88e-06     0.5
   14    -228.7883316644339402    -9.87e-11  2.70e-07  5.53e-06  1.79e-06     0.5
                 **** Energy Check signals convergence ****

               *****************************************************
               *                     SUCCESS                       *
               *           SCF CONVERGED AFTER  14 CYCLES          *
               *****************************************************

Recomputing exchange energy using gridx3       ... done (    0.787 sec)
Old exchange energy                            :     -5.636724425 Eh
New exchange energy                            :     -5.636728115 Eh
Exchange energy change after final integration :     -0.000003690 Eh
Total energy after final integration           :   -228.788335354 Eh
             **** ENERGY FILE WAS UPDATED (.\AcOH.en.tmp) ****

----------------
TOTAL SCF ENERGY
----------------

Total Energy       :       -228.78833535426287 Eh           -6225.64711 eV

Components:
Nuclear Repulsion  :        120.30674173172650 Eh            3273.71287 eV
Electronic Energy  :       -349.09507339620814 Eh           -9499.35989 eV
One Electron Energy:       -550.39049960758723 Eh          -14976.88690 eV
Two Electron Energy:        201.29542621137907 Eh            5477.52702 eV

Virial components:
Potential Energy   :       -455.63612935060576 Eh          -12398.48941 eV
Kinetic Energy     :        226.84779399634286 Eh            6172.84230 eV
Virial Ratio       :          2.00855437614682

DFT components:
N(Alpha)           :       15.999995703485 electrons
N(Beta)            :       15.999995703485 electrons
N(Total)           :       31.999991406970 electrons
E(X)               :      -22.434611276667 Eh       
E(C)               :       -1.297145396401 Eh       
E(XC)              :      -23.731756673069 Eh       

---------------
SCF CONVERGENCE
---------------

  Last Energy change         ...    9.8680e-11  Tolerance :   1.0000e-10
  Last MAX-Density change    ...    5.5290e-06  Tolerance :   1.0000e-09
  Last RMS-Density change    ...    2.6997e-07  Tolerance :   1.0000e-10
  Last DIIS Error            ...    1.7253e-03  Tolerance :   1.0000e-09
  Last Orbital Gradient      ...    1.7936e-06  Tolerance :   2.0000e-07
  Last Orbital Rotation      ...    1.5140e-06  Tolerance :   2.0000e-07


----------------
ORBITAL ENERGIES
----------------

  NO   OCC          E(Eh)            E(eV) 
   0   2.0000     -19.173277      -521.7314 
   1   2.0000     -19.105448      -519.8857 
   2   2.0000     -10.315557      -280.7006 
   3   2.0000     -10.205297      -277.7003 
   4   2.0000      -1.080847       -29.4113 
   5   2.0000      -0.986047       -26.8317 
   6   2.0000      -0.747668       -20.3451 
   7   2.0000      -0.628702       -17.1078 
   8   2.0000      -0.485414       -13.2088 
   9   2.0000      -0.464486       -12.6393 
  10   2.0000      -0.457735       -12.4556 
  11   2.0000      -0.407971       -11.1015 
  12   2.0000      -0.391350       -10.6492 
  13   2.0000      -0.371016       -10.0959 
  14   2.0000      -0.308314        -8.3897 
  15   2.0000      -0.262340        -7.1386 
  16   0.0000       0.006502         0.1769 
  17   0.0000       0.046930         1.2770 
  18   0.0000       0.079383         2.1601 
  19   0.0000       0.119068         3.2400 
  20   0.0000       0.139662         3.8004 
  21   0.0000       0.218459         5.9446 
  22   0.0000       0.262875         7.1532 
  23   0.0000       0.310630         8.4527 
  24   0.0000       0.448142        12.1946 
  25   0.0000       0.448815        12.2129 
  26   0.0000       0.501702        13.6520 
*Only the first 10 virtual orbitals were printed.

                    ********************************
                    * MULLIKEN POPULATION ANALYSIS *
                    ********************************

-----------------------
MULLIKEN ATOMIC CHARGES
-----------------------
   0 C :    0.013377
   1 C :    0.090059
   2 H :    0.027812
   3 H :    0.061944
   4 H :    0.061739
   5 O :   -0.249745
   6 O :   -0.197956
   7 H :    0.192770
Sum of atomic charges:    0.0000000

--------------------------------
MULLIKEN REDUCED ORBITAL CHARGES
--------------------------------
  0 C s       :     2.980615  s :     2.980615
      pz      :     1.029733  p :     2.980981
      px      :     0.959443
      py      :     0.991806
      dz2     :     0.005646  d :     0.025027
      dxz     :     0.004731
      dyz     :     0.003285
      dx2y2   :     0.008319
      dxy     :     0.003045

  1 C s       :     3.086556  s :     3.086556
      pz      :     0.821938  p :     2.693355
      px      :     0.987093
      py      :     0.884323
      dz2     :     0.008046  d :     0.130029
      dxz     :     0.011117
      dyz     :     0.025108
      dx2y2   :     0.033957
      dxy     :     0.051801

  2 H s       :     0.949673  s :     0.949673
      pz      :     0.004661  p :     0.022515
      px      :     0.003824
      py      :     0.014030

  3 H s       :     0.914765  s :     0.914765
      pz      :     0.010223  p :     0.023291
      px      :     0.006217
      py      :     0.006851

  4 H s       :     0.914966  s :     0.914966
      pz      :     0.011787  p :     0.023296
      px      :     0.006031
      py      :     0.005478

  5 O s       :     3.748667  s :     3.748667
      pz      :     1.388391  p :     4.483493
      px      :     1.754953
      py      :     1.340148
      dz2     :     0.002060  d :     0.017584
      dxz     :     0.000355
      dyz     :     0.005385
      dx2y2   :     0.005713
      dxy     :     0.004071

  6 O s       :     3.651929  s :     3.651929
      pz      :     1.774273  p :     4.534909
      px      :     1.134316
      py      :     1.626320
      dz2     :     0.001761  d :     0.011118
      dxz     :     0.000565
      dyz     :     0.001891
      dx2y2   :     0.002223
      dxy     :     0.004678

  7 H s       :     0.742016  s :     0.742016
      pz      :     0.015450  p :     0.065213
      px      :     0.035317
      py      :     0.014446



                     *******************************
                     * LOEWDIN POPULATION ANALYSIS *
                     *******************************

----------------------
LOEWDIN ATOMIC CHARGES
----------------------
   0 C :   -0.071998
   1 C :    0.084735
   2 H :    0.035682
   3 H :    0.055971
   4 H :    0.055933
   5 O :   -0.207244
   6 O :   -0.054900
   7 H :    0.101819

-------------------------------
LOEWDIN REDUCED ORBITAL CHARGES
-------------------------------
  0 C s       :     2.852577  s :     2.852577
      pz      :     1.070315  p :     3.152210
      px      :     1.020233
      py      :     1.061662
      dz2     :     0.015081  d :     0.067211
      dxz     :     0.012849
      dyz     :     0.007587
      dx2y2   :     0.022614
      dxy     :     0.009080

  1 C s       :     2.857457  s :     2.857457
      pz      :     0.805622  p :     2.775036
      px      :     0.980610
      py      :     0.988803
      dz2     :     0.017602  d :     0.282772
      dxz     :     0.019850
      dyz     :     0.048768
      dx2y2   :     0.078056
      dxy     :     0.118496

  2 H s       :     0.899796  s :     0.899796
      pz      :     0.012172  p :     0.064521
      px      :     0.011670
      py      :     0.040680

  3 H s       :     0.880263  s :     0.880263
      pz      :     0.028113  p :     0.063766
      px      :     0.017842
      py      :     0.017810

  4 H s       :     0.880301  s :     0.880301
      pz      :     0.033134  p :     0.063765
      px      :     0.017285
      py      :     0.013347

  5 O s       :     3.558616  s :     3.558616
      pz      :     1.389773  p :     4.618454
      px      :     1.757086
      py      :     1.471595
      dz2     :     0.004248  d :     0.030174
      dxz     :     0.000437
      dyz     :     0.006911
      dx2y2   :     0.011577
      dxy     :     0.007001

  6 O s       :     3.402858  s :     3.402858
      pz      :     1.730240  p :     4.628114
      px      :     1.240263
      py      :     1.657611
      dz2     :     0.003816  d :     0.023928
      dxz     :     0.001332
      dyz     :     0.002134
      dx2y2   :     0.006008
      dxy     :     0.010639

  7 H s       :     0.723572  s :     0.723572
      pz      :     0.044079  p :     0.174608
      px      :     0.088757
      py      :     0.041773



                      *****************************
                      * MAYER POPULATION ANALYSIS *
                      *****************************

  NA   - Mulliken gross atomic population
  ZA   - Total nuclear charge
  QA   - Mulliken gross atomic charge
  VA   - Mayer's total valence
  BVA  - Mayer's bonded valence
  FA   - Mayer's free valence

  ATOM       NA         ZA         QA         VA         BVA        FA
  0 C      5.9866     6.0000     0.0134     3.8804     3.8804     0.0000
  1 C      5.9099     6.0000     0.0901     4.4310     4.4310     0.0000
  2 H      0.9722     1.0000     0.0278     0.9993     0.9993     0.0000
  3 H      0.9381     1.0000     0.0619     1.0003     1.0003    -0.0000
  4 H      0.9383     1.0000     0.0617     1.0004     1.0004     0.0000
  5 O      8.2497     8.0000    -0.2497     2.1995     2.1995    -0.0000
  6 O      8.1980     8.0000    -0.1980     2.2169     2.2169     0.0000
  7 H      0.8072     1.0000     0.1928     1.0170     1.0170    -0.0000

  Mayer bond orders larger than 0.100000
B(  0-C ,  1-C ) :   1.0349 B(  0-C ,  2-H ) :   0.9517 B(  0-C ,  3-H ) :   0.9550 
B(  0-C ,  4-H ) :   0.9551 B(  1-C ,  5-O ) :   2.0715 B(  1-C ,  6-O ) :   1.2184 
B(  6-O ,  7-H ) :   0.9330 

-------
TIMINGS
-------

Total SCF time: 0 days 0 hours 0 min 15 sec 

Total time                  ....      15.193 sec
Sum of individual times     ....      14.690 sec  ( 96.7%)

SCF preparation             ....       0.086 sec  (  0.6%)
Fock matrix formation       ....      13.845 sec  ( 91.1%)
  Startup                   ....       0.003 sec  (  0.0% of F)
  Split-RI-J                ....       4.979 sec  ( 36.0% of F)
  Chain of spheres X        ....       6.740 sec  ( 48.7% of F)
  XC integration            ....       2.126 sec  ( 15.4% of F)
    Basis function eval.    ....       0.630 sec  ( 29.6% of XC)
    Density eval.           ....       0.347 sec  ( 16.3% of XC)
    XC-Functional eval.     ....       0.148 sec  (  7.0% of XC)
    XC-Potential eval.      ....       0.776 sec  ( 36.5% of XC)
Diagonalization             ....       0.000 sec  (  0.0%)
Density matrix formation    ....       0.166 sec  (  1.1%)
Total Energy calculation    ....       0.104 sec  (  0.7%)
Population analysis         ....       0.033 sec  (  0.2%)
Orbital Transformation      ....       0.020 sec  (  0.1%)
Orbital Orthonormalization  ....       0.000 sec  (  0.0%)
DIIS solution               ....       0.182 sec  (  1.2%)
SOSCF solution              ....       0.254 sec  (  1.7%)
Finished LeanSCF after  15.2 sec

Maximum memory used throughout the entire LEANSCF-calculation: 8.6 MB

------------------------------------------------------------------------------
                         ORCA PROPERTY INTEGRAL CALCULATIONS
------------------------------------------------------------------------------

GBWName                                   ... .\AcOH.gbw
Number of atoms                           ...      8
Number of basis functions                 ...     76
Max core memory                           ...   4096 MB

Dipole integrals                          ... YES
Quadrupole integrals                      ...  NO
Linear momentum integrals                 ...  NO
Angular momentum integrals                ...  NO
Higher moments length integrals           ...  NO
Higher moments velocity integrals         ...  NO
Kinetic energy integrals                  ...  NO
GIAO right hand sides                     ...  NO
GIAO dipole derivative integrals          ...  NO
SOC integrals                             ...  NO
EPR diamagnetic integrals (GIAO)          ...  NO
EPR gauge integrals                       ...  NO
Field gradient integrals                  ...  NO (   0 nuclei)
Spin-dipole/Fermi contact integrals       ...  NO (   0 nuclei)
Contact density integrals                 ...  NO (   0 nuclei)
Nucleus-orbit integrals                   ...  NO (   0 nuclei)
Geometric perturbations                   ...  NO (   8 nuclei)

Choice of electric origin   ... Center of mass
Position of electric origin ... (-12.8747,  4.0255,  0.0526) 
Choice of magnetic origin   ... GIAO
Position of magnetic origin ... (  0.0000,  0.0000,  0.0000) 

Calculating integrals                     ... Electric Dipole (Length)     done (  0.0 sec)

Property integrals calculated in   0.0 sec

Maximum memory used throughout the entire PROPINT-calculation: 6.8 MB

-------------------------   --------------------
FINAL SINGLE POINT ENERGY      -228.788335354263
-------------------------   --------------------

------------------------------------------------------------------------------
                         ORCA SCF GRADIENT CALCULATION
------------------------------------------------------------------------------

Nuc. rep. gradient        (SHARK) ... done (  0.0 sec)
HCore & Overlap gradient  (SHARK) ... done (  0.0 sec)
Split-RIJ-J gradient      (SHARK) ... done (  0.2 sec)
done (  4.3 sec)
XC gradient                       ... done (  1.0 sec)

------------------
CARTESIAN GRADIENT
------------------

   1   C   :    0.003142805    0.028866532    0.003814353
   2   C   :   -0.036768812   -0.054467800   -0.006807126
   3   H   :    0.003448795   -0.006054509   -0.000867285
   4   H   :   -0.004142892    0.001029875   -0.006333698
   5   H   :   -0.003983308   -0.000686473    0.006492262
   6   O   :    0.003952192    0.014864247    0.001937237
   7   O   :    0.027064991    0.036309562    0.004512926
   8   H   :    0.007286230   -0.019861433   -0.002748669

Difference to translation invariance:
           :    0.0000000000    0.0000000000    0.0000000000

Difference to rotation invariance:
           :    0.0000401897   -0.0000294636   -0.0000041302

Norm of the Cartesian gradient     ...    0.0903081483
RMS gradient                       ...    0.0184340736
MAX gradient                       ...    0.0544678003

-------
TIMINGS
-------

Total SCF gradient time     ....        5.485 sec

One electron gradient       ....       0.023 sec  (  0.4%)
RI-J Coulomb gradient       ....       0.152 sec  (  2.8%)
COSX gradient               ....       4.345 sec  ( 79.2%)
XC gradient                 ....       0.961 sec  ( 17.5%)

Maximum memory used throughout the entire SCFGRAD-calculation: 10.7 MB
------------------------------------------------------------------------------
                         ORCA GEOMETRY RELAXATION STEP
------------------------------------------------------------------------------

Reading the OPT-File                    .... done
Getting information on internals        .... done
Copying old internal coords+grads       .... done
Making the new internal coordinates     .... (2022 redundants) done
Validating the new internal coordinates .... (2022 redundants) done
Calculating the B-matrix                .... done
Calculating the G,G- and P matrices     .... done
Transforming gradient to internals      .... done
Projecting the internal gradient        .... done
Number of atoms                         ....   8
Number of internal coordinates          ....  24
Current Energy                          ....  -228.788335354 Eh
Current gradient norm                   ....     0.090308148 Eh/bohr
Maximum allowed component of the step   ....  0.300
Current trust radius                    ....  0.300
Evaluating the initial hessian          ....  (Almloef) done
Projecting the Hessian                  .... done
Forming the augmented Hessian           .... done
Diagonalizing the augmented Hessian     .... done
Last element of RFO vector              ....  0.988431821
Lowest eigenvalues of augmented Hessian:
 -0.009429807  0.013360135  0.018580978  0.031072785  0.135173238
Length of the computed step             ....  0.153440902
The final length of the internal step   ....  0.153440902
Converting the step to Cartesian space:
 Initial RMS(Int)=    0.0313209930
Transforming coordinates:
 Iter   0:  RMS(Cart)=    0.0394189230 RMS(Int)=    1.2827006888
 Iter   5:  RMS(Cart)=    0.0000000074 RMS(Int)=    0.0000000062
done
Storing new coordinates                 .... done

                                .--------------------.
          ----------------------|Geometry convergence|-------------------------
          Item                value                   Tolerance       Converged
          ---------------------------------------------------------------------
          RMS gradient        0.0128683031            0.0000080000      NO
          MAX gradient        0.0389068773            0.0000300000      NO
          RMS step            0.0313209930            0.0001000000      NO
          MAX step            0.1022273745            0.0002000000      NO
          -------------------------------------------------------------------------
          ........................................................
          Max(Bonds)      0.0111      Max(Angles)    5.86
          Max(Dihed)        0.92      Max(Improp)    0.00
          ---------------------------------------------------------------------

The optimization has not yet converged - more geometry cycles are needed


    ---------------------------------------------------------------------------
                         Redundant Internal Coordinates
                            (Angstroem and degrees)

        Definition                    Value    dE/dq     Step     New-Value
    ----------------------------------------------------------------------------
     1. B(C   1,C   0)                1.4948 -0.005291  0.0064    1.5012   
     2. B(H   2,C   0)                1.1104  0.005894 -0.0091    1.1014   
     3. B(H   3,C   0)                1.1102  0.007199 -0.0111    1.0991   
     4. B(H   4,C   0)                1.1102  0.007210 -0.0111    1.0991   
     5. B(O   5,C   1)                1.2217  0.015495 -0.0078    1.2139   
     6. B(O   6,C   1)                1.3498  0.013732 -0.0110    1.3388   
     7. B(H   7,O   6)                0.9678  0.001593 -0.0016    0.9661   
     8. A(C   1,C   0,H   2)          110.33 -0.007999    1.57    111.90   
     9. A(C   1,C   0,H   4)          109.69  0.003382   -0.70    108.99   
    10. A(H   2,C   0,H   4)          108.92 -0.000359    0.25    109.17   
    11. A(C   1,C   0,H   3)          109.69  0.003765   -0.72    108.97   
    12. A(H   3,C   0,H   4)          109.28  0.000844   -0.64    108.64   
    13. A(H   2,C   0,H   3)          108.92  0.000380    0.22    109.14   
    14. A(C   0,C   1,O   5)          119.87 -0.016556    2.27    122.14   
    15. A(O   5,C   1,O   6)          120.14 -0.017633    2.25    122.39   
    16. A(C   0,C   1,O   6)          120.00  0.034189   -4.52    115.47   
    17. A(C   1,O   6,H   7)          121.13  0.038907   -5.86    115.27   
    18. D(O   5,C   1,C   0,H   3)     60.02  0.002366   -0.74     59.27   
    19. D(O   5,C   1,C   0,H   2)    180.00  0.000209    0.06    180.06   
    20. D(O   6,C   1,C   0,H   2)     -0.00 -0.000823    0.31      0.31   
    21. D(O   6,C   1,C   0,H   3)   -119.98  0.001334   -0.50   -120.49   
    22. D(O   5,C   1,C   0,H   4)    -60.02 -0.003105    0.92    -59.09   
    23. D(H   7,O   6,C   1,O   5)     -0.00 -0.000520    0.12      0.12   
    24. D(H   7,O   6,C   1,C   0)    180.00  0.000515   -0.12    179.88   
    ----------------------------------------------------------------------------

Geometry step timings:
Preparation and reading OPT file:      0.007 s (38.889 %)
Internal coordinates            :      0.000 s ( 0.000 %)
B/P matrices and projection     :      0.001 s ( 5.556 %)
Hessian update/contruction      :      0.003 s (16.667 %)
Making the step                 :      0.004 s (22.222 %)
Converting the step to Cartesian:      0.001 s ( 5.556 %)
Storing new data                :      0.001 s ( 5.556 %)
Checking convergence            :      0.000 s ( 0.000 %)
Final printing                  :      0.001 s ( 5.556 %)
Total time                      :      0.018 s

Time for energy+gradient        :     22.437 s
Time for complete geometry iter :     22.561 s

         *************************************************************
         *                GEOMETRY OPTIMIZATION CYCLE   2            *
         *************************************************************
---------------------------------
CARTESIAN COORDINATES (ANGSTROEM)
---------------------------------
  C     -8.218450    1.739884   -0.006020
  C     -6.792459    2.206837    0.039911
  H     -8.289448    0.650208   -0.149342
  H     -8.733754    2.246630   -0.834071
  H     -8.714543    2.013104    0.935887
  O     -6.500127    3.375072    0.192344
  O     -5.868034    1.249092   -0.103481
  H     -4.951404    1.553113   -0.075229

----------------------------
CARTESIAN COORDINATES (A.U.)
----------------------------
  NO LB      ZA    FRAG     MASS         X           Y           Z
   0 C     6.0000    0    12.011  -15.530621    3.287904   -0.011376
   1 C     6.0000    0    12.011  -12.835887    4.170318    0.075422
   2 H     1.0000    0     1.008  -15.664786    1.228715   -0.282215
   3 H     1.0000    0     1.008  -16.504402    4.245516   -1.576165
   4 H     1.0000    0     1.008  -16.468101    3.804216    1.768570
   5 O     8.0000    0    15.999  -12.283461    6.377962    0.363477
   6 O     8.0000    0    15.999  -11.088977    2.360441   -0.195550
   7 H     1.0000    0     1.008   -9.356798    2.934958   -0.142161

--------------------------------
INTERNAL COORDINATES (ANGSTROEM)
--------------------------------
 C      0   0   0     0.000000000000     0.00000000     0.00000000
 C      1   0   0     1.501201745669     0.00000000     0.00000000
 H      1   2   0     1.101351745681   111.89897422     0.00000000
 H      1   2   3     1.099089156639   108.96518313   239.21405944
 H      1   2   3     1.099066246027   108.97864486   120.83133084
 O      2   1   3     1.213864421344   122.13827627   180.06501971
 O      2   1   3     1.338805048302   115.47364173     0.30417842
 H      7   2   1     0.966145509945   115.26817815   179.88285006

---------------------------
INTERNAL COORDINATES (A.U.)
---------------------------
 C      0   0   0     0.000000000000     0.00000000     0.00000000
 C      1   0   0     2.836860171078     0.00000000     0.00000000
 H      1   2   0     2.081253176454   111.89897422     0.00000000
 H      1   2   3     2.076977502810   108.96518313   239.21405944
 H      1   2   3     2.076934208027   108.97864486   120.83133084
 O      2   1   3     2.293871320050   122.13827627   180.06501971
 O      2   1   3     2.529974888002   115.47364173     0.30417842
 H      7   2   1     1.825750419314   115.26817815   179.88285006

------------------------------------------------------------------------------
                   ___                                                        
                  /   \      - P O W E R E D   B Y -                         
                 /     \                                                     
                 |  |  |   _    _      __       _____    __    __             
                 |  |  |  | |  | |    /  \     |  _  \  |  |  /  |          
                  \  \/   | |  | |   /    \    | | | |  |  | /  /          
                 / \  \   | |__| |  /  /\  \   | |_| |  |  |/  /          
                |  |  |   |  __  | /  /__\  \  |    /   |      \           
                |  |  |   | |  | | |   __   |  |    \   |  |\   \          
                \     /   | |  | | |  |  |  |  | |\  \  |  | \   \       
                 \___/    |_|  |_| |__|  |__|  |_| \__\ |__|  \__/        
                                                                              
                      - O R C A' S   B I G   F R I E N D -                    
                                      &                                       
                       - I N T E G R A L  F E E D E R -                       
                                                                              
 v1 FN, 2020, v2 2021, v3 2022-2024                                           
------------------------------------------------------------------------------


----------------------
SHARK INTEGRAL PACKAGE
----------------------

Number of atoms                             ...      8
Number of basis functions                   ...     76
Number of shells                            ...     36
Maximum angular momentum                    ...      2
Integral batch strategy                     ... SHARK/LIBINT Hybrid
RI-J (if used) integral strategy            ... SPLIT-RIJ (Revised 2003 algorithm where possible)
Printlevel                                  ...      1
Contraction scheme used                     ... SEGMENTED contraction
Prescreening option                         ... SCHWARTZ
   Thresh                                   ... 1.000e-13
   Tcut                                     ... 1.000e-15
   Tpresel                                  ... 1.000e-15 
Coulomb Range Separation                    ... NOT USED
Exchange Range Separation                   ... NOT USED
Multipole approximations                    ... NOT USED
Finite Nucleus Model                        ... NOT USED
CABS basis                                  ... NOT available
Auxiliary Coulomb fitting basis             ... AVAILABLE
   # of basis functions in Aux-J            ...    240
   # of shells in Aux-J                     ...     80
   Maximum angular momentum in Aux-J        ...      4
Auxiliary J/K fitting basis                 ... NOT available
Auxiliary Correlation fitting basis         ... NOT available
Auxiliary 'external' fitting basis          ... NOT available

Checking pre-screening integrals            ... done (  0.0 sec) Dimension = 36
   => SHARK Basis and OBASIS are compatible. Storing Pre-screening
Shell pair information
Shell pair cut-off parameter TPreSel        ...   1.0e-15
Total number of shell pairs                 ...       666
Shell pairs after pre-screening             ...       663
Total number of primitive shell pairs       ...      2410
Primitive shell pairs kept                  ...      2035
          la=0 lb=0:    207 shell pairs
          la=1 lb=0:    240 shell pairs
          la=1 lb=1:     78 shell pairs
          la=2 lb=0:     80 shell pairs
          la=2 lb=1:     48 shell pairs
          la=2 lb=2:     10 shell pairs

Checking whether 4 symmetric matrices of dimension 76 fit in memory
:Max Core in MB      =   4096.00
 MB in use           =      3.98
 MB left             =   4092.02
 MB needed           =      0.09
 Data fit in memory  = YES
Calculating RI/J V-Matrix + Cholesky decomp.... done (  0.0 sec)
Calculating Nuclear repulsion               ... done (  0.0 sec) ENN=    120.945148951323 Eh

Diagonalization of the overlap matrix:
Smallest eigenvalue                        ... 3.563e-03
Time for diagonalization                   ...    0.000 sec
Threshold for overlap eigenvalues          ... 1.000e-07
Number of eigenvalues below threshold      ... 0
Time for construction of square roots      ...    0.001 sec
Total time needed                          ...    0.003 sec

-------------------
DFT GRID GENERATION
-------------------

General Integration Accuracy     IntAcc      ... 4.388
Radial Grid Type                 RadialGrid  ... OptM3 with GC (2021)
Angular Grid (max. ang.)         AngularGrid ... 4 (Lebedev-302)
Angular grid pruning method      GridPruning ... 4 (adaptive)
Weight generation scheme         WeightScheme... mBecke (2022)
Basis function cutoff            BFCut       ... 1.0000e-13
Integration weight cutoff        WCut        ... 1.0000e-14
Partially contracted basis set               ... off
Rotationally invariant grid construction     ... off
Angular grids for H and He will be reduced by one unit

Total number of grid points                  ...    37393
Total number of batches                      ...      589
Average number of points per batch           ...       63
Average number of grid points per atom       ...     4674

--------------------
COSX GRID GENERATION
--------------------

GRIDX 1
-------
General Integration Accuracy     IntAcc      ... 3.816
Radial Grid Type                 RadialGrid  ... OptM3 with GC (2021)
Angular Grid (max. ang.)         AngularGrid ... 1 (Lebedev-50)
Angular grid pruning method      GridPruning ... 4 (adaptive)
Weight generation scheme         WeightScheme... mBecke (2022)
Basis function cutoff            BFCut       ... 1.0000e-13
Integration weight cutoff        WCut        ... 1.0000e-14
Partially contracted basis set               ... on
Rotationally invariant grid construction     ... off
Angular grids for H and He will be reduced by one unit

Total number of grid points                  ...     4802
Total number of batches                      ...       42
Average number of points per batch           ...      114
Average number of grid points per atom       ...      600
UseSFitting                                  ... on

GRIDX 2
-------
General Integration Accuracy     IntAcc      ... 4.020
Radial Grid Type                 RadialGrid  ... OptM3 with GC (2021)
Angular Grid (max. ang.)         AngularGrid ... 2 (Lebedev-110)
Angular grid pruning method      GridPruning ... 4 (adaptive)
Weight generation scheme         WeightScheme... mBecke (2022)
Basis function cutoff            BFCut       ... 1.0000e-13
Integration weight cutoff        WCut        ... 1.0000e-14
Partially contracted basis set               ... on
Rotationally invariant grid construction     ... off
Angular grids for H and He will be reduced by one unit

Total number of grid points                  ...    10562
Total number of batches                      ...       87
Average number of points per batch           ...      121
Average number of grid points per atom       ...     1320
UseSFitting                                  ... on

GRIDX 3
-------
General Integration Accuracy     IntAcc      ... 4.338
Radial Grid Type                 RadialGrid  ... OptM3 with GC (2021)
Angular Grid (max. ang.)         AngularGrid ... 3 (Lebedev-194)
Angular grid pruning method      GridPruning ... 4 (adaptive)
Weight generation scheme         WeightScheme... mBecke (2022)
Basis function cutoff            BFCut       ... 1.0000e-13
Integration weight cutoff        WCut        ... 1.0000e-14
Partially contracted basis set               ... on
Rotationally invariant grid construction     ... off
Angular grids for H and He will be reduced by one unit

Total number of grid points                  ...    23302
Total number of batches                      ...      186
Average number of points per batch           ...      125
Average number of grid points per atom       ...     2913
UseSFitting                                  ... on
Grids setup in   0.3 sec
Initializing property integral containers    ... done (  0.0 sec)

SHARK setup successfully completed in   0.4 seconds

Maximum memory used throughout the entire STARTUP-calculation: 16.0 MB
Occupation numbers will be reassigned to an Aufbau configuration
             **** ENERGY FILE WAS UPDATED (.\AcOH.en.tmp) ****
Finished Guess after   0.1 sec
Maximum memory used throughout the entire GUESS-calculation: 6.7 MB
----------------------------------------D-I-I-S--------------------------------------------
Iteration    Energy (Eh)           Delta-E    RMSDP     MaxDP     DIISErr   Damp  Time(sec)
-------------------------------------------------------------------------------------------
               ***  Starting incremental Fock matrix formation  ***
    1    -228.7936976096750357     0.00e+00  4.21e-04  4.21e-03  1.55e-02  0.700   0.6
    2    -228.7941483644407583    -4.51e-04  3.76e-04  3.84e-03  1.20e-02  0.700   0.4
                               ***Turning on AO-DIIS***
    3    -228.7944794254493388    -3.31e-04  3.03e-04  3.12e-03  8.84e-03  0.700   0.4
    4    -228.7947119634692683    -2.33e-04  7.43e-04  7.45e-03  6.34e-03  0.000   0.4
                              *** Initializing SOSCF ***
---------------------------------------S-O-S-C-F--------------------------------------
Iteration    Energy (Eh)           Delta-E    RMSDP     MaxDP     MaxGrad    Time(sec)
--------------------------------------------------------------------------------------
    5    -228.7952956344672373    -5.84e-04  4.24e-05  5.64e-04  2.96e-04     0.4
               *** Restarting incremental Fock matrix formation ***
    6    -228.7952964935988973    -8.59e-07  2.98e-05  3.18e-04  7.38e-05     0.6
    7    -228.7952965210636478    -2.75e-08  1.23e-05  1.84e-04  1.05e-04     0.6
    8    -228.7952966577829841    -1.37e-07  9.53e-06  1.50e-04  4.89e-05     0.5
    9    -228.7952966422312500     1.56e-08  5.71e-06  7.46e-05  6.14e-05     0.5
   10    -228.7952966756629678    -3.34e-08  1.08e-06  2.07e-05  5.70e-06     0.5
   11    -228.7952966751238648     5.39e-10  6.62e-07  1.26e-05  9.05e-06     0.6
   12    -228.7952966758694799    -7.46e-10  8.02e-08  1.46e-06  2.68e-07     0.7
   13    -228.7952966758631703     6.31e-12  4.22e-08  8.06e-07  2.89e-07     0.7
                 **** Energy Check signals convergence ****

               *****************************************************
               *                     SUCCESS                       *
               *           SCF CONVERGED AFTER  13 CYCLES          *
               *****************************************************

Recomputing exchange energy using gridx3       ... done (    0.972 sec)
Old exchange energy                            :     -5.641497343 Eh
New exchange energy                            :     -5.641506381 Eh
Exchange energy change after final integration :     -0.000009038 Eh
Total energy after final integration           :   -228.795305714 Eh
             **** ENERGY FILE WAS UPDATED (.\AcOH.en.tmp) ****

----------------
TOTAL SCF ENERGY
----------------

Total Energy       :       -228.79530571421421 Eh           -6225.83678 eV

Components:
Nuclear Repulsion  :        120.94514895132252 Eh            3291.08482 eV
Electronic Energy  :       -349.74044562719422 Eh           -9516.92136 eV
One Electron Energy:       -551.57048694967614 Eh          -15008.99599 eV
Two Electron Energy:        201.83004132248192 Eh            5492.07464 eV

Virial components:
Potential Energy   :       -455.74425172488139 Eh          -12401.43157 eV
Kinetic Energy     :        226.94894601066719 Eh            6175.59478 eV
Virial Ratio       :          2.00813557293833

DFT components:
N(Alpha)           :       15.999994415877 electrons
N(Beta)            :       15.999994415877 electrons
N(Total)           :       31.999988831754 electrons
E(X)               :      -22.450894798918 Eh       
E(C)               :       -1.298237470080 Eh       
E(XC)              :      -23.749132268999 Eh       

---------------
SCF CONVERGENCE
---------------

  Last Energy change         ...   -6.3096e-12  Tolerance :   1.0000e-10
  Last MAX-Density change    ...    8.0636e-07  Tolerance :   1.0000e-09
  Last RMS-Density change    ...    4.2225e-08  Tolerance :   1.0000e-10
  Last DIIS Error            ...    2.9588e-04  Tolerance :   1.0000e-09
  Last Orbital Gradient      ...    2.8869e-07  Tolerance :   2.0000e-07
  Last Orbital Rotation      ...    2.2064e-07  Tolerance :   2.0000e-07


Total SCF time: 0 days 0 hours 0 min 8 sec 
Finished LeanSCF after   8.7 sec

Maximum memory used throughout the entire LEANSCF-calculation: 8.6 MB

------------------------------------------------------------------------------
                         ORCA PROPERTY INTEGRAL CALCULATIONS
------------------------------------------------------------------------------

GBWName                                   ... .\AcOH.gbw
Number of atoms                           ...      8
Number of basis functions                 ...     76
Max core memory                           ...   4096 MB

Dipole integrals                          ... YES
Quadrupole integrals                      ...  NO
Linear momentum integrals                 ...  NO
Angular momentum integrals                ...  NO
Higher moments length integrals           ...  NO
Higher moments velocity integrals         ...  NO
Kinetic energy integrals                  ...  NO
GIAO right hand sides                     ...  NO
GIAO dipole derivative integrals          ...  NO
SOC integrals                             ...  NO
EPR diamagnetic integrals (GIAO)          ...  NO
EPR gauge integrals                       ...  NO
Field gradient integrals                  ...  NO (   0 nuclei)
Spin-dipole/Fermi contact integrals       ...  NO (   0 nuclei)
Contact density integrals                 ...  NO (   0 nuclei)
Nucleus-orbit integrals                   ...  NO (   0 nuclei)
Geometric perturbations                   ...  NO (   8 nuclei)

Choice of electric origin   ... Center of mass
Position of electric origin ... (-12.8739,  4.0248,  0.0537) 
Choice of magnetic origin   ... GIAO
Position of magnetic origin ... (  0.0000,  0.0000,  0.0000) 

Calculating integrals                     ... Electric Dipole (Length)     done (  0.0 sec)

Property integrals calculated in   0.0 sec

Maximum memory used throughout the entire PROPINT-calculation: 6.8 MB

-------------------------   --------------------
FINAL SINGLE POINT ENERGY      -228.795305714214
-------------------------   --------------------

------------------------------------------------------------------------------
                         ORCA SCF GRADIENT CALCULATION
------------------------------------------------------------------------------

Nuc. rep. gradient        (SHARK) ... done (  0.0 sec)
HCore & Overlap gradient  (SHARK) ... done (  0.0 sec)
Split-RIJ-J gradient      (SHARK) ... done (  0.1 sec)
done (  4.6 sec)
XC gradient                       ... done (  1.0 sec)

------------------
CARTESIAN GRADIENT
------------------

   1   C   :   -0.000643800    0.015417356    0.001894629
   2   C   :   -0.012746708   -0.030789992   -0.003412995
   3   H   :    0.000691771   -0.001545275   -0.000242688
   4   H   :    0.000375528   -0.001703916   -0.000563105
   5   H   :    0.000410358   -0.001778757    0.000123907
   6   O   :    0.000123643    0.008571677    0.000918498
   7   O   :    0.010783417    0.025109894    0.003096509
   8   H   :    0.001005791   -0.013280988   -0.001814754

Difference to translation invariance:
           :    0.0000000000    0.0000000000    0.0000000000

Difference to rotation invariance:
           :    0.0000479612   -0.0000219298    0.0000066542

Norm of the Cartesian gradient     ...    0.0488352692
RMS gradient                       ...    0.0099684576
MAX gradient                       ...    0.0307899916

-------
TIMINGS
-------

Total SCF gradient time     ....        5.751 sec

One electron gradient       ....       0.019 sec  (  0.3%)
RI-J Coulomb gradient       ....       0.144 sec  (  2.5%)
COSX gradient               ....       4.616 sec  ( 80.3%)
XC gradient                 ....       0.972 sec  ( 16.9%)

Maximum memory used throughout the entire SCFGRAD-calculation: 10.7 MB
------------------------------------------------------------------------------
                         ORCA GEOMETRY RELAXATION STEP
------------------------------------------------------------------------------

Reading the OPT-File                    .... done
Getting information on internals        .... done
Copying old internal coords+grads       .... done
Making the new internal coordinates     .... (2022 redundants) done
Validating the new internal coordinates .... (2022 redundants) done
Calculating the B-matrix                .... done
Calculating the G,G- and P matrices     .... done
Transforming gradient to internals      .... done
Projecting the internal gradient        .... done
Number of atoms                         ....   8
Number of internal coordinates          ....  24
Current Energy                          ....  -228.795305714 Eh
Current gradient norm                   ....     0.048835269 Eh/bohr
Maximum allowed component of the step   ....  0.300
Current trust radius                    ....  0.300
Updating the Hessian (BFGS)             .... done
Forming the augmented Hessian           .... done
Diagonalizing the augmented Hessian     .... done
Last element of RFO vector              ....  0.986943343
Lowest eigenvalues of augmented Hessian:
 -0.004935634  0.013360190  0.018591804  0.031072793  0.133521199
Length of the computed step             ....  0.163198634
The final length of the internal step   ....  0.163198634
Converting the step to Cartesian space:
 Initial RMS(Int)=    0.0333127816
Transforming coordinates:
 Iter   0:  RMS(Cart)=    0.0383868122 RMS(Int)=    1.2817030498
 Iter   5:  RMS(Cart)=    0.0000000385 RMS(Int)=    0.0000000325
done
Storing new coordinates                 .... done
The predicted energy change is          ....    -0.002533544
Previously predicted energy change      ....    -0.004825912
Actually observed energy change         ....    -0.006970360
Ratio of predicted to observed change   ....     1.444361273
New trust radius                        ....     0.300000000

[...]
     20       0.000000   0.000000   0.000000   0.000000   0.000000   0.000000
     21       0.000000   0.000000   0.000000   0.000000   0.000000   0.000000
     22       0.000000   0.000000   0.000000   0.000000   0.000000   0.000000
     23       0.000000   0.000000   0.000000   0.000000   0.000000   0.000000
                  6          7          8          9         10         11    
      0      -0.000305  -0.088173  -0.000307   0.244237   0.003762  -0.283499
      1       0.002309   0.127724  -0.005034   0.090015  -0.024124  -0.083882
      2      -0.003111   0.108508   0.005434   0.041657   0.031169  -0.032412
      3      -0.001173   0.011170  -0.020017   0.129525   0.011625   0.113404
      4       0.007703  -0.118888   0.131523   0.018995  -0.078506   0.093469
      5      -0.009749  -0.093417  -0.170360  -0.003077   0.101875   0.059818
      6      -0.076765  -0.385651   0.397703   0.193370  -0.238517  -0.369622
      7       0.184975   0.193307  -0.017384   0.103576  -0.029750  -0.076375
      8       0.562645   0.210769   0.121664   0.060956  -0.086217  -0.020483
      9       0.136542  -0.384878  -0.375464   0.186234   0.227658  -0.368167
     10      -0.579578   0.207728  -0.157256   0.103373   0.116591  -0.080184
     11      -0.057385   0.189306   0.102041   0.059138  -0.026125  -0.015835
     12      -0.048601   0.313120   0.024593   0.359949  -0.011366  -0.365826
     13       0.323310   0.390186  -0.165915   0.160111   0.068751  -0.124370
     14      -0.416194   0.263655   0.213282   0.085477  -0.089651  -0.054603
     15       0.004946  -0.138608   0.006775  -0.273412  -0.005665   0.035689
     16      -0.032210  -0.088841  -0.036920   0.099037   0.038570   0.150016
     17       0.041930  -0.052363   0.047375   0.108351  -0.050159   0.111305
     18      -0.004563   0.217967   0.001446  -0.062079  -0.009616   0.143095
     19       0.029410   0.018612  -0.008922  -0.169260   0.063372  -0.113996
     20      -0.038166  -0.010744   0.012750  -0.123184  -0.082109  -0.104443
     21       0.000362   0.115362   0.064842   0.131737   0.081429   0.292743
     22      -0.003566   0.218164  -0.439024  -0.551410  -0.550717  -0.405007
     23       0.004427   0.158082   0.573908  -0.429847   0.716061  -0.344547
                 12         13         14         15         16         17    
      0       0.031495   0.015193   0.045913   0.067828  -0.186266   0.015632
      1      -0.128649  -0.103113  -0.049854   0.044102  -0.028294  -0.031894
      2      -0.102989   0.133350  -0.043829   0.026305  -0.000996  -0.025977
      3       0.062686  -0.019352  -0.119291   0.154328   0.216115   0.047181
      4      -0.006159   0.129963   0.045782  -0.044254  -0.066540  -0.006421
      5      -0.011656  -0.168519   0.049149  -0.051772  -0.076342  -0.010286
      6      -0.451266  -0.566287  -0.062273  -0.416437   0.494793   0.042081
      7       0.012814  -0.139532   0.023045  -0.002535  -0.096597   0.170023
      8       0.165214  -0.235366   0.133610  -0.255916   0.029307   0.601588
      9      -0.461535   0.541180  -0.076896  -0.373532   0.477075  -0.033237
     10       0.113282   0.322364   0.128155  -0.293810   0.055710   0.629962
     11       0.038203  -0.002341  -0.000096   0.117130  -0.172650   0.019044
     12       0.615231  -0.034966   0.304564  -0.393554   0.274757  -0.337804
     13       0.256211   0.219714   0.118781  -0.252273   0.262465  -0.245421
     14       0.126187  -0.283900   0.055993  -0.150021   0.179636  -0.160962
     15       0.025821   0.004098   0.032653  -0.019073  -0.019084  -0.013401
     16       0.022915  -0.026751   0.077643   0.022106   0.035801  -0.011479
     17       0.014713   0.035010   0.056057   0.019239   0.029817  -0.007286
     18      -0.079478   0.002904   0.033321  -0.059369  -0.068853  -0.011226
     19       0.063232  -0.019405  -0.131152  -0.008533   0.001876   0.002572
     20       0.057757   0.025082  -0.104853   0.000261   0.009409   0.003255
     21       0.026990  -0.001510  -0.338187  -0.218585  -0.206565  -0.028620
     22      -0.143296   0.010108   0.627833   0.335012   0.310420   0.043356
     23      -0.113763  -0.013111   0.521589   0.282759   0.262629   0.036415
                 18         19         20         21         22         23    
      0      -0.003960  -0.048672  -0.041860  -0.008129  -0.036403  -0.000707
      1       0.032006  -0.041046  -0.025943   0.056280   0.066928  -0.000523
      2      -0.041678  -0.026044  -0.015672  -0.072730   0.055805  -0.000330
      3      -0.002701   0.280170   0.002198  -0.000067   0.000848   0.003097
      4       0.015337   0.543437  -0.000082   0.000295   0.002018   0.000152
      5      -0.019398   0.386603  -0.000322  -0.000402   0.001463  -0.000234
      6      -0.399796  -0.090822   0.061547  -0.076838  -0.034783  -0.000655
      7       0.152891  -0.048362   0.599125  -0.671023  -0.284322   0.002203
      8       0.237136  -0.087355  -0.194765   0.200349   0.099130  -0.000243
      9       0.406300  -0.080763   0.156146   0.178937  -0.078605  -0.000349
     10      -0.210190  -0.105826  -0.030054  -0.015474   0.019935   0.000252
     11      -0.147109  -0.012891   0.616532   0.680221  -0.285743   0.002277
     12       0.062158   0.171502   0.255152  -0.004284   0.534817  -0.000006
     13      -0.446817   0.129358  -0.265298   0.011194  -0.540417   0.000676
     14       0.567983   0.080722  -0.236135  -0.007701  -0.482586   0.000540
     15       0.000169  -0.153037   0.000004  -0.000020  -0.000204  -0.000221
     16      -0.001491  -0.344363   0.000359   0.000143  -0.000805   0.000637
     17       0.001553  -0.247785   0.000280  -0.000179  -0.000601   0.000516
     18       0.000415  -0.010056  -0.000163   0.000006   0.000444   0.057096
     19      -0.001815  -0.049772  -0.000068  -0.000047  -0.000186   0.020251
     20       0.002308  -0.037163  -0.000034   0.000059  -0.000193   0.009069
     21       0.001459  -0.169754   0.002288   0.000067  -0.001564  -0.930195
     22      -0.007547   0.294218   0.001711  -0.000361  -0.001001  -0.330248
     23       0.008463   0.245918   0.001050   0.000460  -0.000585  -0.147980


-----------
IR SPECTRUM
-----------

 Mode   freq       eps      Int      T**2         TX        TY        TZ
       cm**-1   L/(mol*cm) km/mol    a.u.
----------------------------------------------------------------------------
  6:     82.52   0.000162    0.82  0.000614  ( 0.002386 -0.015225  0.019392)
  7:    424.18   0.000752    3.80  0.000553  (-0.007398  0.017148  0.014305)
  8:    543.83   0.004102   20.73  0.002354  ( 0.003947 -0.029390  0.038398)
  9:    593.45   0.008462   42.77  0.004450  ( 0.064265 -0.010111 -0.014753)
 10:    682.30   0.019698   99.55  0.009009  ( 0.008519 -0.057705  0.074880)
 11:    873.26   0.000773    3.91  0.000276  ( 0.014939  0.006450  0.003403)
 12:    991.77   0.009229   46.64  0.002904  ( 0.040565 -0.025728 -0.024425)
 13:   1054.33   0.002044   10.33  0.000605  (-0.002388  0.014882 -0.019437)
 14:   1214.65   0.042123  212.87  0.010822  (-0.078570  0.049398  0.046995)
 15:   1336.61   0.003140   15.87  0.000733  ( 0.016634 -0.015937 -0.014226)
 16:   1407.29   0.019102   96.53  0.004236  ( 0.062137 -0.011357 -0.015681)
 17:   1439.67   0.002578   13.03  0.000559  ( 0.012383  0.016676  0.011286)
 18:   1448.02   0.001908    9.64  0.000411  ( 0.001649 -0.012158  0.016147)
 19:   1869.00   0.060852  307.52  0.010160  ( 0.017837  0.079560  0.059265)
 20:   3049.36   0.000217    1.10  0.000022  (-0.003510 -0.002676 -0.001649)
 21:   3126.06   0.000556    2.81  0.000055  (-0.000644  0.004520 -0.005886)
 22:   3178.16   0.000542    2.74  0.000053  (-0.004218  0.004468  0.003930)
 23:   3742.92   0.012246   61.89  0.001021  (-0.031588 -0.004815 -0.000080)

* The epsilon (eps) is given for a Dirac delta lineshape.
** The dipole moment derivative (T) already includes vibrational overlap.

The first frequency considered to be a vibration is 6
The total number of vibrations considered is 18


--------------------------
THERMOCHEMISTRY AT 298.15K
--------------------------

Temperature         ...   298.15 K
Pressure            ...     1.00 atm
Total Mass          ...    60.05 AMU
Quasi RRHO          ...     True
Cut-Off Frequency   ...     1.00 cm^-1

Throughout the following assumptions are being made:
  (1) The electronic state is orbitally nondegenerate
  (2) There are no thermally accessible electronically excited states
  (3) Hindered rotations indicated by low frequency modes are not
      treated as such but are treated as vibrations and this may
      cause some error
  (4) All equations used are the standard statistical mechanics
      equations for an ideal gas
  (5) All vibrations are strictly harmonic

freq.      82.52  E(vib)   ...       0.48 
freq.     424.18  E(vib)   ...       0.18 
freq.     543.83  E(vib)   ...       0.12 
freq.     593.45  E(vib)   ...       0.10 
freq.     682.30  E(vib)   ...       0.08 
freq.     873.26  E(vib)   ...       0.04 
freq.     991.77  E(vib)   ...       0.02 
freq.    1054.33  E(vib)   ...       0.02 
freq.    1214.65  E(vib)   ...       0.01 
freq.    1336.61  E(vib)   ...       0.01 
freq.    1407.29  E(vib)   ...       0.00 
freq.    1439.67  E(vib)   ...       0.00 
freq.    1448.02  E(vib)   ...       0.00 
freq.    1869.00  E(vib)   ...       0.00 
freq.    3049.36  E(vib)   ...       0.00 
freq.    3126.06  E(vib)   ...       0.00 
freq.    3178.16  E(vib)   ...       0.00 
freq.    3742.92  E(vib)   ...       0.00 

------------
INNER ENERGY
------------

The inner energy is: U= E(el) + E(ZPE) + E(vib) + E(rot) + E(trans)
    E(el)   - is the total energy from the electronic structure calculation
              = E(kin-el) + E(nuc-el) + E(el-el) + E(nuc-nuc)
    E(ZPE)  - the the zero temperature vibrational energy from the frequency calculation
    E(vib)  - the the finite temperature correction to E(ZPE) due to population
              of excited vibrational states
    E(rot)  - is the rotational thermal energy
    E(trans)- is the translational thermal energy

Summary of contributions to the inner energy U:
Electronic energy                ...   -228.79867137 Eh
Zero point energy                ...      0.06164128 Eh      38.68 kcal/mol
Thermal vibrational correction   ...      0.00170620 Eh       1.07 kcal/mol
Thermal rotational correction    ...      0.00141627 Eh       0.89 kcal/mol
Thermal translational correction ...      0.00141627 Eh       0.89 kcal/mol
-----------------------------------------------------------------------
Total thermal energy                   -228.73249134 Eh


Summary of corrections to the electronic energy:
(perhaps to be used in another calculation)
Total thermal correction                  0.00453875 Eh       2.85 kcal/mol
Non-thermal (ZPE) correction              0.06164128 Eh      38.68 kcal/mol
-----------------------------------------------------------------------
Total correction                          0.06618003 Eh      41.53 kcal/mol


--------
ENTHALPY
--------

The enthalpy is H = U + kB*T
                kB is Boltzmann's constant
Total thermal energy              ...   -228.73249134 Eh 
Thermal Enthalpy correction       ...      0.00094421 Eh       0.59 kcal/mol
-----------------------------------------------------------------------
Total Enthalpy                    ...   -228.73154713 Eh


Note: Only C1 symmetry has been detected, increase convergence thresholds 
      if your molecule has a higher symmetry. Symmetry factor of 1.0 is   
      used for the rotational entropy correction. 
 

Note: Rotational entropy computed according to Herzberg 
Infrared and Raman Spectra, Chapter V,1, Van Nostrand Reinhold, 1945 
Point Group:  C1, Symmetry Number:   1  
Rotational constants in cm-1:     0.378950     0.314179     0.177490 

Vibrational entropy computed according to the QRRHO of S. Grimme
Chem.Eur.J. 2012 18 9955 using a reference frequency of 100.0 cm-1


-------
ENTROPY
-------

The entropy contributions are T*S = T*(S(el)+S(vib)+S(rot)+S(trans))
     S(el)   - electronic entropy
     S(vib)  - vibrational entropy
     S(rot)  - rotational entropy
     S(trans)- translational entropy
The entropies will be listed as multiplied by the temperature to get
units of energy

Electronic entropy                ...      0.00000000 Eh      0.00 kcal/mol
Vibrational entropy               ...      0.00283119 Eh      1.78 kcal/mol
Rotational entropy                ...      0.01133166 Eh      7.11 kcal/mol
Translational entropy             ...      0.01814900 Eh     11.39 kcal/mol
-----------------------------------------------------------------------
Final entropy term                ...      0.03231185 Eh     20.28 kcal/mol

In case the symmetry of your molecule has not been determined correctly
or in case you have a reason to use a different symmetry number we print 
out the resulting rotational entropy values for sn=1,12:

 non-linear molecules -----------------------------------
|  sn= 1 | S(rot)=       0.01133166 Eh      7.11 kcal/mol|
|  sn= 2 | S(rot)=       0.01067720 Eh      6.70 kcal/mol|
|  sn= 3 | S(rot)=       0.01029437 Eh      6.46 kcal/mol|
|  sn= 4 | S(rot)=       0.01002274 Eh      6.29 kcal/mol|
|  sn= 5 | S(rot)=       0.00981206 Eh      6.16 kcal/mol|
|  sn= 6 | S(rot)=       0.00963991 Eh      6.05 kcal/mol|
|  sn= 7 | S(rot)=       0.00949436 Eh      5.96 kcal/mol|
|  sn= 8 | S(rot)=       0.00936829 Eh      5.88 kcal/mol|
|  sn= 9 | S(rot)=       0.00925708 Eh      5.81 kcal/mol|
|  sn=10 | S(rot)=       0.00915760 Eh      5.75 kcal/mol|
|  sn=11 | S(rot)=       0.00906761 Eh      5.69 kcal/mol|
|  sn=12 | S(rot)=       0.00898545 Eh      5.64 kcal/mol|
 linear molecules ---------------------------------------
|  Dinfh | S(rot)=       0.00695814 Eh      4.37 kcal/mol|
|  Cinfv | S(rot)=       0.00761260 Eh      4.78 kcal/mol|
 --------------------------------------------------------


-------------------
GIBBS FREE ENERGY
-------------------

The Gibbs free energy is G = H - T*S

Total enthalpy                    ...   -228.73154713 Eh 
Total entropy correction          ...     -0.03231185 Eh    -20.28 kcal/mol
-----------------------------------------------------------------------
Final Gibbs free energy         ...   -228.76385898 Eh

For completeness - the Gibbs free energy minus the electronic energy
G-E(el)                           ...      0.03481239 Eh     21.85 kcal/mol


Maximum memory used throughout the entire PROP-calculation: 17.5 MB

--------------------------------
SUGGESTED CITATIONS FOR THIS RUN
--------------------------------

Below you find a list of papers that are relevant to this ORCA run
We neither can nor want to force you to cite these papers, but we appreciate if you do
You receive ORCA, which is the product of decades of hard work by many enthusiastic individuals, for free
The only thing we kindly ask in return is that you cite our papers,
We deeply appreciate it, if you show your appreciation for ORCA by not just citing the generic ORCA reference.

Please note that relegating all ORCA citations to the supporting information does *not* help us.
SI sections are not indexed - citations you put there will not count into any citation statistics
But we need these citations in order to attract the funding resources that allow us to do what we are doing

Therefore, if you are a happy ORCA user, please consider citing a few of the papers listed below in the main body of your paper

In addition to the list printed below, the program has created the file .\AcOH.bibtex that contains the list in bibtex format
You can import this file easily into all common literature databanks and citation aid programs


List of essential papers. We consider these as the minimum necessary citations

  1. Neese, F.
     Software update: the ORCA program system, version 6.0
     WIRES Comput. Molec. Sci. 2025 15(1), e70019
     doi.org/10.1002/wcms.7019

List of papers to cite with high priority. The work reported in these papers was absolutely
necessary for this run to complete.
Our perspective: the developers of density functionals and basis sets usually get cited in chemistry papers
Good! But without the algorithms to do something with them, the functionals or basis sets would not do anything.
Hence, in our opinion, the algorithm design and method developments papers are equally worthy of getting cited

  1. Neese, F.
     An improvement of the resolution of the identity approximation for the formation of the Coulomb matrix
     J. Comp. Chem. 2003 24(14), 1740-1747
     doi.org/10.1002/jcc.10318
  2. Neese, F.; Wennmohs, F.; Hansen, A.; Becker, U.
     Efficient, approximate and parallel Hartree-Fock and hybrid DFT calculations. A 'chain-of-spheres' algorithm for the Hartree-Fock exchange
     Chem. Phys. 2009 356(1-3), 98-109
     doi.org/10.1016/j.chemphys.2008.10.036
  3. Bykov, D.; Petrenko, T.; Izsak, R.; Kossmann, S.; Becker, U.; Valeev, E.; Neese, F.
     Efficient implementation of the analytic second derivatives of Hartree-Fock and hybrid DFT energies: a detailed analysis of different approximations
     Molec. Phys. 2015 113 , 1961-1977
     doi.org/10.1080/00268976.2015.1025114
  4. Helmich-Paris, B.; de Souza, B.; Neese, F.; Izs??k, R.
     An improved chain of spheres for exchange algorithm
     J. Chem. Phys. 2021 155(10), 104109
     doi.org/10.1063/5.0058766
  5. Neese, F.
     The SHARK Integral Generation and Digestion System
     J. Comp. Chem. 2022 44(3), 381
     doi.org/10.1002/jcc.26942

List of suggested additional citations. These are papers that are important in the 'surrounding' of 
of this run, or papers that preceded the highly important papers. If you like your results we are grateful for a citation.

  1. Izsak, R.; Neese, F.
     An overlap fitted chain of spheres exchange method
     J. Chem. Phys. 2011 135 , 144105
     doi.org/10.1063/1.3646921
  2. Izsak, R.; Hansen, A.; Neese, F.
     The resolution of identity and chain of spheres approximations for the LPNO-CCSD singles Fock term
     Molec. Phys. 2012 110 , 2413-2417
     doi.org/10.1080/00268976.2012.687466
  3. Neese, F.
     The ORCA program system
     WIRES Comput. Molec. Sci. 2012 2(1), 73-78
     doi.org/10.1002/wcms.81
  4. Izsak, R.; Neese, F.; Klopper, W.
     Robust fitting techniques in the chain of spheres approximation to the Fock exchange: The role of the complementary space
     J. Chem. Phys. 2013 139 , 
     doi.org/10.1063/1.4819264
  5. Neese, F.
     Software update: the ORCA program system, version 4.0
     WIRES Comput. Molec. Sci. 2018 8(1), 1-6
     doi.org/10.1002/wcms.1327
  6. Neese, F.; Wennmohs, F.; Becker, U.; Riplinger, C.
     The ORCA quantum chemistry program package
     J. Chem. Phys. 2020 152(22), 224108
     doi.org/10.1063/5.0004608
  7. Neese, F.
     Software update: The ORCA program system???Version 5.0
     WIRES Comput. Molec. Sci. 2022 12(1), e1606
     doi.org/10.1002/wcms.1606

List of optional additional citations

  1. Neese, F.
     Approximate second-order SCF convergence for spin unrestricted wavefunctions
     Chem. Phys. Lett. 2000 325(1-3), 93-98
     doi.org/10.1016/s0009-2614(00)00662-x

Timings for individual modules:

Sum of individual times          ...      567.649 sec (=   9.461 min)
Startup calculation              ...       15.819 sec (=   0.264 min)   2.8 %
SCF iterations                   ...      251.194 sec (=   4.187 min)  44.3 %
Property integrals               ...       13.798 sec (=   0.230 min)   2.4 %
SCF Response                     ...       23.483 sec (=   0.391 min)   4.1 %
Property calculations            ...       63.290 sec (=   1.055 min)  11.1 %
SCF Gradient evaluation          ...      199.660 sec (=   3.328 min)  35.2 %
Geometry relaxation              ...        0.405 sec (=   0.007 min)   0.1 %
                             ****ORCA TERMINATED NORMALLY****
TOTAL RUN TIME: 0 days 0 hours 9 minutes 30 seconds 788 msec
