13
* (null), Energy   -1000.0000000
C     1.653111    0.338806   -0.072409   -0.114146    0.032084   -0.009601
C     1.417036   -0.968802    0.212159    0.121186    0.178782   -0.037894
N     0.169278   -1.530502    0.333752    0.070894   -0.050219    0.011723
C    -1.013486   -0.875739    0.188129   -0.916868   -0.257355    0.010598
N    -0.831970    0.606548   -0.032497   -0.021908    0.016306   -0.001197
C     0.583167    1.266264   -0.274550    0.237364   -1.130767    0.288918
O    -2.113843   -1.335674    0.228076    0.561051    0.230353   -0.019552
O     0.565830    2.420049   -0.573838   -0.026705    0.745810   -0.193464
H     2.239204   -1.673303    0.354845   -0.147607   -0.117416    0.032245
H     0.099186   -2.533091    0.514228   -0.443308   -0.034696    0.001074
H    -1.444922    0.886451   -0.818414   -0.318766   -0.405760    0.067069
H     2.672257    0.711579   -0.172265   -0.079173   -0.228142    0.059022
H    -1.242310    1.089691    0.787885   -0.160148   -0.208621    0.072315
13
* Frequency(32) 1866.7336
C     1.640139    0.342453   -0.073500   -0.114146    0.032084   -0.009601
C     1.430809   -0.948484    0.207852    0.121186    0.178782   -0.037894
N     0.177335   -1.536210    0.335084    0.070894   -0.050219    0.011723
C    -1.117684   -0.904986    0.189334   -0.916868   -0.257355    0.010598
N    -0.834459    0.608401   -0.032633   -0.021908    0.016306   -0.001197
C     0.610142    1.137759   -0.241715    0.237364   -1.130767    0.288918
O    -2.050083   -1.309495    0.225854    0.561051    0.230353   -0.019552
O     0.562795    2.504807   -0.595824   -0.026705    0.745810   -0.193464
H     2.222429   -1.686646    0.358509   -0.147607   -0.117416    0.032245
H     0.048807   -2.537034    0.514350   -0.443308   -0.034696    0.001074
H    -1.481148    0.840338   -0.810792   -0.318766   -0.405760    0.067069
H     2.663259    0.685652   -0.165557   -0.079173   -0.228142    0.059022
H    -1.260510    1.065982    0.796103   -0.160148   -0.208621    0.072315
13
* Frequency(32) 1866.7336
C     1.628573    0.345704   -0.074473   -0.114146    0.032084   -0.009601
C     1.443088   -0.930368    0.204012    0.121186    0.178782   -0.037894
N     0.184519   -1.541298    0.336272    0.070894   -0.050219    0.011723
C    -1.210590   -0.931064    0.190408   -0.916868   -0.257355    0.010598
N    -0.836679    0.610054   -0.032754   -0.021908    0.016306   -0.001197
C     0.634194    1.023178   -0.212439    0.237364   -1.130767    0.288918
O    -1.993232   -1.286154    0.223873    0.561051    0.230353   -0.019552
O     0.560089    2.580379   -0.615427   -0.026705    0.745810   -0.193464
H     2.207472   -1.698544    0.361777   -0.147607   -0.117416    0.032245
H     0.003887   -2.540550    0.514459   -0.443308   -0.034696    0.001074
H    -1.513449    0.799223   -0.803996   -0.318766   -0.405760    0.067069
H     2.655237    0.662535   -0.159576   -0.079173   -0.228142    0.059022
H    -1.276738    1.044842    0.803431   -0.160148   -0.208621    0.072315
13
* Frequency(32) 1866.7336
C     1.619666    0.348207   -0.075222   -0.114146    0.032084   -0.009601
C     1.452545   -0.916417    0.201055    0.121186    0.178782   -0.037894
N     0.190051   -1.545217    0.337187    0.070894   -0.050219    0.011723
C    -1.282136   -0.951146    0.191235   -0.916868   -0.257355    0.010598
N    -0.838389    0.611326   -0.032848   -0.021908    0.016306   -0.001197
C     0.652717    0.934940   -0.189894    0.237364   -1.130767    0.288918
O    -1.949451   -1.268178    0.222347    0.561051    0.230353   -0.019552
O     0.558005    2.638578   -0.630524   -0.026705    0.745810   -0.193464
H     2.195954   -1.707706    0.364293   -0.147607   -0.117416    0.032245
H    -0.030706   -2.543258    0.514543   -0.443308   -0.034696    0.001074
H    -1.538324    0.767560   -0.798762   -0.318766   -0.405760    0.067069
H     2.649058    0.644732   -0.154971   -0.079173   -0.228142    0.059022
H    -1.289235    1.028563    0.809074   -0.160148   -0.208621    0.072315
13
* Frequency(32) 1866.7336
C     1.614383    0.349692   -0.075666   -0.114146    0.032084   -0.009601
C     1.458154   -0.908143    0.199302    0.121186    0.178782   -0.037894
N     0.193332   -1.547541    0.337729    0.070894   -0.050219    0.011723
C    -1.324571   -0.963057    0.191725   -0.916868   -0.257355    0.010598
N    -0.839403    0.612081   -0.032903   -0.021908    0.016306   -0.001197
C     0.663703    0.882606   -0.176522    0.237364   -1.130767    0.288918
O    -1.923484   -1.257517    0.221442    0.561051    0.230353   -0.019552
O     0.556769    2.673095   -0.639478   -0.026705    0.745810   -0.193464
H     2.189122   -1.713141    0.365785   -0.147607   -0.117416    0.032245
H    -0.051224   -2.544863    0.514593   -0.443308   -0.034696    0.001074
H    -1.553077    0.748780   -0.795658   -0.318766   -0.405760    0.067069
H     2.645394    0.634173   -0.152239   -0.079173   -0.228142    0.059022
H    -1.296647    1.018907    0.812421   -0.160148   -0.208621    0.072315
13
* Frequency(32) 1866.7336
C     1.613297    0.349997   -0.075757   -0.114146    0.032084   -0.009601
C     1.459307   -0.906442    0.198941    0.121186    0.178782   -0.037894
N     0.194007   -1.548019    0.337841    0.070894   -0.050219    0.011723
C    -1.333294   -0.965506    0.191826   -0.916868   -0.257355    0.010598
N    -0.839611    0.612236   -0.032914   -0.021908    0.016306   -0.001197
C     0.665961    0.871848   -0.173773    0.237364   -1.130767    0.288918
O    -1.918146   -1.255325    0.221256    0.561051    0.230353   -0.019552
O     0.556515    2.680191   -0.641319   -0.026705    0.745810   -0.193464
H     2.187718   -1.714258    0.366092   -0.147607   -0.117416    0.032245
H    -0.055441   -2.545193    0.514603   -0.443308   -0.034696    0.001074
H    -1.556110    0.744920   -0.795020   -0.318766   -0.405760    0.067069
H     2.644641    0.632002   -0.151678   -0.079173   -0.228142    0.059022
H    -1.298170    1.016923    0.813109   -0.160148   -0.208621    0.072315
13
* Frequency(32) 1866.7336
C     1.616525    0.349090   -0.075486   -0.114146    0.032084   -0.009601
C     1.455879   -0.911498    0.200013    0.121186    0.178782   -0.037894
N     0.192001   -1.546599    0.337509    0.070894   -0.050219    0.011723
C    -1.307362   -0.958227    0.191526   -0.916868   -0.257355    0.010598
N    -0.838992    0.611775   -0.032881   -0.021908    0.016306   -0.001197
C     0.659247    0.903830   -0.181945    0.237364   -1.130767    0.288918
O    -1.934015   -1.261841    0.221809    0.561051    0.230353   -0.019552
O     0.557271    2.659097   -0.635847   -0.026705    0.745810   -0.193464
H     2.191893   -1.710937    0.365180   -0.147607   -0.117416    0.032245
H    -0.042903   -2.544212    0.514573   -0.443308   -0.034696    0.001074
H    -1.547094    0.756396   -0.796917   -0.318766   -0.405760    0.067069
H     2.646880    0.638455   -0.153347   -0.079173   -0.228142    0.059022
H    -1.293641    1.022823    0.811063   -0.160148   -0.208621    0.072315
13
* Frequency(32) 1866.7336
C     1.623718    0.347068   -0.074881   -0.114146    0.032084   -0.009601
C     1.448242   -0.922765    0.202401    0.121186    0.178782   -0.037894
N     0.187534   -1.543434    0.336771    0.070894   -0.050219    0.011723
C    -1.249583   -0.942009    0.190858   -0.916868   -0.257355    0.010598
N    -0.837611    0.610747   -0.032805   -0.021908    0.016306   -0.001197
C     0.644289    0.975088   -0.200152    0.237364   -1.130767    0.288918
O    -1.969371   -1.276357    0.223041    0.561051    0.230353   -0.019552
O     0.558953    2.612098   -0.623655   -0.026705    0.745810   -0.193464
H     2.201195   -1.703538    0.363148   -0.147607   -0.117416    0.032245
H    -0.014967   -2.542026    0.514505   -0.443308   -0.034696    0.001074
H    -1.527006    0.781966   -0.801144   -0.318766   -0.405760    0.067069
H     2.651869    0.652832   -0.157066   -0.079173   -0.228142    0.059022
H    -1.283549    1.035970    0.806506   -0.160148   -0.208621    0.072315
13
* Frequency(32) 1866.7336
C     1.634097    0.344151   -0.074008   -0.114146    0.032084   -0.009601
C     1.437224   -0.939020    0.205846    0.121186    0.178782   -0.037894
N     0.181088   -1.538868    0.335705    0.070894   -0.050219    0.011723
C    -1.166220   -0.918610    0.189895   -0.916868   -0.257355    0.010598
N    -0.835619    0.609265   -0.032696   -0.021908    0.016306   -0.001197
C     0.622708    1.077899   -0.226421    0.237364   -1.130767    0.288918
O    -2.020383   -1.297301    0.224819    0.561051    0.230353   -0.019552
O     0.561381    2.544288   -0.606065   -0.026705    0.745810   -0.193464
H     2.214615   -1.692862    0.360216   -0.147607   -0.117416    0.032245
H     0.025340   -2.538871    0.514407   -0.443308   -0.034696    0.001074
H    -1.498023    0.818858   -0.807242   -0.318766   -0.405760    0.067069
H     2.659068    0.673575   -0.162433   -0.079173   -0.228142    0.059022
H    -1.268988    1.054938    0.799931   -0.160148   -0.208621    0.072315
13
* Frequency(32) 1866.7336
C     1.646536    0.340655   -0.072962   -0.114146    0.032084   -0.009601
C     1.424018   -0.958503    0.209976    0.121186    0.178782   -0.037894
N     0.173362   -1.533395    0.334427    0.070894   -0.050219    0.011723
C    -1.066305   -0.890565    0.188740   -0.916868   -0.257355    0.010598
N    -0.833232    0.607488   -0.032566   -0.021908    0.016306   -0.001197
C     0.596841    1.201123   -0.257905    0.237364   -1.130767    0.288918
O    -2.081522   -1.322403    0.226950    0.561051    0.230353   -0.019552
O     0.564291    2.463014   -0.584983   -0.026705    0.745810   -0.193464
H     2.230701   -1.680067    0.356702   -0.147607   -0.117416    0.032245
H     0.073648   -2.535090    0.514290   -0.443308   -0.034696    0.001074
H    -1.463286    0.863076   -0.814550   -0.318766   -0.405760    0.067069
H     2.667696    0.698436   -0.168864   -0.079173   -0.228142    0.059022
H    -1.251536    1.077672    0.792051   -0.160148   -0.208621    0.072315
13
* Frequency(32) 1866.7336
C     1.659687    0.336958   -0.071855   -0.114146    0.032084   -0.009601
C     1.410055   -0.979101    0.214342    0.121186    0.178782   -0.037894
N     0.165194   -1.527609    0.333076    0.070894   -0.050219    0.011723
C    -0.960667   -0.860914    0.187519   -0.916868   -0.257355    0.010598
N    -0.830707    0.605609   -0.032428   -0.021908    0.016306   -0.001197
C     0.569493    1.331406   -0.291194    0.237364   -1.130767    0.288918
O    -2.146164   -1.348944    0.229203    0.561051    0.230353   -0.019552
O     0.567368    2.377085   -0.562693   -0.026705    0.745810   -0.193464
H     2.247707   -1.666538    0.352987   -0.147607   -0.117416    0.032245
H     0.124725   -2.531093    0.514166   -0.443308   -0.034696    0.001074
H    -1.426559    0.909826   -0.822278   -0.318766   -0.405760    0.067069
H     2.676818    0.724722   -0.175665   -0.079173   -0.228142    0.059022
H    -1.233084    1.101709    0.783719   -0.160148   -0.208621    0.072315
13
* Frequency(32) 1866.7336
C     1.672126    0.333462   -0.070809   -0.114146    0.032084   -0.009601
C     1.396849   -0.998584    0.218471    0.121186    0.178782   -0.037894
N     0.157469   -1.522137    0.331799    0.070894   -0.050219    0.011723
C    -0.860753   -0.832869    0.186364   -0.916868   -0.257355    0.010598
N    -0.828320    0.603832   -0.032297   -0.021908    0.016306   -0.001197
C     0.543627    1.454629   -0.322678    0.237364   -1.130767    0.288918
O    -2.207304   -1.374046    0.231333    0.561051    0.230353   -0.019552
O     0.570278    2.295811   -0.541610   -0.026705    0.745810   -0.193464
H     2.263792   -1.653743    0.349473   -0.147607   -0.117416    0.032245
H     0.173033   -2.527312    0.514049   -0.443308   -0.034696    0.001074
H    -1.391822    0.954043   -0.829586   -0.318766   -0.405760    0.067069
H     2.685446    0.749584   -0.182097   -0.079173   -0.228142    0.059022
H    -1.215633    1.124443    0.775838   -0.160148   -0.208621    0.072315
13
* Frequency(32) 1866.7336
C     1.682504    0.330545   -0.069936   -0.114146    0.032084   -0.009601
C     1.385831   -1.014839    0.221917    0.121186    0.178782   -0.037894
N     0.151023   -1.517571    0.330733    0.070894   -0.050219    0.011723
C    -0.777390   -0.809470    0.185400   -0.916868   -0.257355    0.010598
N    -0.826328    0.602350   -0.032189   -0.021908    0.016306   -0.001197
C     0.522045    1.557441   -0.348947    0.237364   -1.130767    0.288918
O    -2.258316   -1.394990    0.233111    0.561051    0.230353   -0.019552
O     0.572706    2.228001   -0.524020   -0.026705    0.745810   -0.193464
H     2.277213   -1.643067    0.346542   -0.147607   -0.117416    0.032245
H     0.213340   -2.524157    0.513952   -0.443308   -0.034696    0.001074
H    -1.362839    0.990935   -0.835684   -0.318766   -0.405760    0.067069
H     2.692644    0.770327   -0.187463   -0.079173   -0.228142    0.059022
H    -1.201072    1.143411    0.769263   -0.160148   -0.208621    0.072315
13
* Frequency(32) 1866.7336
C     1.689697    0.328523   -0.069331   -0.114146    0.032084   -0.009601
C     1.378194   -1.026105    0.224305    0.121186    0.178782   -0.037894
N     0.146555   -1.514406    0.329994    0.070894   -0.050219    0.011723
C    -0.719611   -0.793252    0.184733   -0.916868   -0.257355    0.010598
N    -0.824947    0.601322   -0.032113   -0.021908    0.016306   -0.001197
C     0.507087    1.628699   -0.367154    0.237364   -1.130767    0.288918
O    -2.293672   -1.409507    0.234343    0.561051    0.230353   -0.019552
O     0.574389    2.181002   -0.511829   -0.026705    0.745810   -0.193464
H     2.286515   -1.635668    0.344510   -0.147607   -0.117416    0.032245
H     0.241276   -2.521971    0.513884   -0.443308   -0.034696    0.001074
H    -1.342751    1.016505   -0.839911   -0.318766   -0.405760    0.067069
H     2.697633    0.784704   -0.191182   -0.079173   -0.228142    0.059022
H    -1.190980    1.156558    0.764706   -0.160148   -0.208621    0.072315
13
* Frequency(32) 1866.7336
C     1.692926    0.327615   -0.069060   -0.114146    0.032084   -0.009601
C     1.374766   -1.031162    0.225377    0.121186    0.178782   -0.037894
N     0.144550   -1.512986    0.329663    0.070894   -0.050219    0.011723
C    -0.693678   -0.785973    0.184433   -0.916868   -0.257355    0.010598
N    -0.824328    0.600861   -0.032079   -0.021908    0.016306   -0.001197
C     0.500373    1.660681   -0.375326    0.237364   -1.130767    0.288918
O    -2.309541   -1.416022    0.234896    0.561051    0.230353   -0.019552
O     0.575145    2.159907   -0.506357   -0.026705    0.745810   -0.193464
H     2.290690   -1.632347    0.343598   -0.147607   -0.117416    0.032245
H     0.253814   -2.520989    0.513854   -0.443308   -0.034696    0.001074
H    -1.333735    1.027982   -0.841808   -0.318766   -0.405760    0.067069
H     2.699873    0.791156   -0.192852   -0.079173   -0.228142    0.059022
H    -1.186450    1.162458    0.762661   -0.160148   -0.208621    0.072315
13
* Frequency(32) 1866.7336
C     1.691840    0.327921   -0.069151   -0.114146    0.032084   -0.009601
C     1.375919   -1.029461    0.225016    0.121186    0.178782   -0.037894
N     0.145225   -1.513464    0.329774    0.070894   -0.050219    0.011723
C    -0.702402   -0.788422    0.184534   -0.916868   -0.257355    0.010598
N    -0.824536    0.601016   -0.032091   -0.021908    0.016306   -0.001197
C     0.502632    1.649923   -0.372577    0.237364   -1.130767    0.288918
O    -2.304202   -1.413830    0.234710    0.561051    0.230353   -0.019552
O     0.574890    2.167003   -0.508197   -0.026705    0.745810   -0.193464
H     2.289285   -1.633464    0.343904   -0.147607   -0.117416    0.032245
H     0.249596   -2.521319    0.513864   -0.443308   -0.034696    0.001074
H    -1.336768    1.024121   -0.841170   -0.318766   -0.405760    0.067069
H     2.699119    0.788986   -0.192290   -0.079173   -0.228142    0.059022
H    -1.187974    1.160474    0.763349   -0.160148   -0.208621    0.072315
13
* Frequency(32) 1866.7336
C     1.686557    0.329406   -0.069595   -0.114146    0.032084   -0.009601
C     1.381528   -1.021186    0.223262    0.121186    0.178782   -0.037894
N     0.148506   -1.515788    0.330317    0.070894   -0.050219    0.011723
C    -0.744836   -0.800332    0.185024   -0.916868   -0.257355    0.010598
N    -0.825550    0.601771   -0.032146   -0.021908    0.016306   -0.001197
C     0.513617    1.597589   -0.359205    0.237364   -1.130767    0.288918
O    -2.278236   -1.403169    0.233805    0.561051    0.230353   -0.019552
O     0.573655    2.201521   -0.517151   -0.026705    0.745810   -0.193464
H     2.282454   -1.638899    0.345397   -0.147607   -0.117416    0.032245
H     0.229079   -2.522925    0.513914   -0.443308   -0.034696    0.001074
H    -1.351521    1.005342   -0.838066   -0.318766   -0.405760    0.067069
H     2.695455    0.778427   -0.189558   -0.079173   -0.228142    0.059022
H    -1.195386    1.150818    0.766696   -0.160148   -0.208621    0.072315
13
* Frequency(32) 1866.7336
C     1.677650    0.331909   -0.070345   -0.114146    0.032084   -0.009601
C     1.390985   -1.007235    0.220305    0.121186    0.178782   -0.037894
N     0.154038   -1.519707    0.331232    0.070894   -0.050219    0.011723
C    -0.816383   -0.820415    0.185851   -0.916868   -0.257355    0.010598
N    -0.827260    0.603043   -0.032239   -0.021908    0.016306   -0.001197
C     0.532140    1.509351   -0.336660    0.237364   -1.130767    0.288918
O    -2.234455   -1.385194    0.232280    0.561051    0.230353   -0.019552
O     0.571571    2.259719   -0.532248   -0.026705    0.745810   -0.193464
H     2.270936   -1.648061    0.347913   -0.147607   -0.117416    0.032245
H     0.194486   -2.525633    0.513997   -0.443308   -0.034696    0.001074
H    -1.376396    0.973679   -0.832832   -0.318766   -0.405760    0.067069
H     2.689277    0.760624   -0.184953   -0.079173   -0.228142    0.059022
H    -1.207883    1.134539    0.772339   -0.160148   -0.208621    0.072315
13
* Frequency(32) 1866.7336
C     1.666083    0.335160   -0.071317   -0.114146    0.032084   -0.009601
C     1.403264   -0.989120    0.216465    0.121186    0.178782   -0.037894
N     0.161222   -1.524795    0.332420    0.070894   -0.050219    0.011723
C    -0.909289   -0.846492    0.186925   -0.916868   -0.257355    0.010598
N    -0.829480    0.604695   -0.032361   -0.021908    0.016306   -0.001197
C     0.556192    1.394770   -0.307384    0.237364   -1.130767    0.288918
O    -2.177604   -1.361852    0.230298    0.561051    0.230353   -0.019552
O     0.568865    2.335292   -0.551852   -0.026705    0.745810   -0.193464
H     2.255979   -1.659959    0.351180   -0.147607   -0.117416    0.032245
H     0.149566   -2.529148    0.514106   -0.443308   -0.034696    0.001074
H    -1.408696    0.932563   -0.826036   -0.318766   -0.405760    0.067069
H     2.681254    0.737506   -0.178972   -0.079173   -0.228142    0.059022
H    -1.224110    1.113399    0.779667   -0.160148   -0.208621    0.072315
13
* Frequency(32) 1866.7336
C     1.653111    0.338806   -0.072409   -0.114146    0.032084   -0.009601
C     1.417036   -0.968802    0.212159    0.121186    0.178782   -0.037894
N     0.169278   -1.530502    0.333752    0.070894   -0.050219    0.011723
C    -1.013486   -0.875739    0.188129   -0.916868   -0.257355    0.010598
N    -0.831970    0.606548   -0.032497   -0.021908    0.016306   -0.001197
C     0.583167    1.266264   -0.274550    0.237364   -1.130767    0.288918
O    -2.113843   -1.335674    0.228076    0.561051    0.230353   -0.019552
O     0.565830    2.420049   -0.573838   -0.026705    0.745810   -0.193464
H     2.239204   -1.673303    0.354845   -0.147607   -0.117416    0.032245
H     0.099186   -2.533091    0.514228   -0.443308   -0.034696    0.001074
H    -1.444922    0.886451   -0.818414   -0.318766   -0.405760    0.067069
H     2.672257    0.711579   -0.172265   -0.079173   -0.228142    0.059022
H    -1.242310    1.089691    0.787885   -0.160148   -0.208621    0.072315
