13
* (null), Energy   -1000.0000000
C     1.653111    0.338806   -0.072409    0.226765    0.191360    0.107314
C     1.417036   -0.968802    0.212159   -0.339709    0.121598   -0.154271
N     0.169278   -1.530502    0.333752   -0.148680   -0.333864    0.192235
C    -1.013486   -0.875739    0.188129   -0.183297   -0.418351    0.088630
N    -0.831970    0.606548   -0.032497    0.476482   -0.421113    0.015684
C     0.583167    1.266264   -0.274550    0.564740    0.512007   -0.068795
O    -2.113843   -1.335674    0.228076   -0.371572   -0.019558   -0.012536
O     0.565830    2.420049   -0.573838   -0.210146    0.473626   -0.146296
H     2.239204   -1.673303    0.354845   -0.266061    0.137442   -0.497385
H     0.099186   -2.533091    0.514228    0.280711   -0.379630    0.150605
H    -1.444922    0.886451   -0.818414    0.421775   -0.329582    0.116355
H     2.672257    0.711579   -0.172265    0.506680   -0.535033    0.140422
H    -1.242310    1.089691    0.787885    0.535511   -0.454218    0.044940
13
* Frequency(10)  456.2940
C     1.678882    0.360554   -0.060213    0.226765    0.191360    0.107314
C     1.378430   -0.954983    0.194627   -0.339709    0.121598   -0.154271
N     0.152382   -1.568444    0.355598   -0.148680   -0.333864    0.192235
C    -1.034317   -0.923283    0.198202   -0.183297   -0.418351    0.088630
N    -0.777820    0.558691   -0.030714    0.476482   -0.421113    0.015684
C     0.647347    1.324451   -0.282368    0.564740    0.512007   -0.068795
O    -2.156071   -1.337896    0.226652   -0.371572   -0.019558   -0.012536
O     0.541948    2.473874   -0.590463   -0.210146    0.473626   -0.146296
H     2.208967   -1.657683    0.298320   -0.266061    0.137442   -0.497385
H     0.131088   -2.576234    0.531344    0.280711   -0.379630    0.150605
H    -1.396990    0.848995   -0.805191    0.421775   -0.329582    0.116355
H     2.729838    0.650776   -0.156306    0.506680   -0.535033    0.140422
H    -1.181452    1.038071    0.792992    0.535511   -0.454218    0.044940
13
* Frequency(10)  456.2940
C     1.701860    0.379944   -0.049339    0.226765    0.191360    0.107314
C     1.344008   -0.942661    0.178995   -0.339709    0.121598   -0.154271
N     0.137316   -1.602275    0.375077   -0.148680   -0.333864    0.192235
C    -1.052890   -0.965674    0.207183   -0.183297   -0.418351    0.088630
N    -0.729538    0.516020   -0.029125    0.476482   -0.421113    0.015684
C     0.704572    1.376333   -0.289339    0.564740    0.512007   -0.068795
O    -2.193722   -1.339878    0.225381   -0.371572   -0.019558   -0.012536
O     0.520654    2.521867   -0.605288   -0.210146    0.473626   -0.146296
H     2.182007   -1.643756    0.247920   -0.266061    0.137442   -0.497385
H     0.159532   -2.614702    0.546605    0.280711   -0.379630    0.150605
H    -1.354251    0.815599   -0.793401    0.421775   -0.329582    0.116355
H     2.781180    0.596561   -0.142077    0.506680   -0.535033    0.140422
H    -1.127189    0.992045    0.797546    0.535511   -0.454218    0.044940
13
* Frequency(10)  456.2940
C     1.719555    0.394877   -0.040965    0.226765    0.191360    0.107314
C     1.317499   -0.933173    0.166956   -0.339709    0.121598   -0.154271
N     0.125714   -1.628327    0.390078   -0.148680   -0.333864    0.192235
C    -1.067194   -0.998320    0.214099   -0.183297   -0.418351    0.088630
N    -0.692356    0.483159   -0.027901    0.476482   -0.421113    0.015684
C     0.748641    1.416287   -0.294707    0.564740    0.512007   -0.068795
O    -2.222717   -1.341404    0.224403   -0.371572   -0.019558   -0.012536
O     0.504255    2.558825   -0.616704   -0.210146    0.473626   -0.146296
H     2.161246   -1.633031    0.209107   -0.266061    0.137442   -0.497385
H     0.181437   -2.644326    0.558357    0.280711   -0.379630    0.150605
H    -1.321339    0.789880   -0.784321    0.421775   -0.329582    0.116355
H     2.820718    0.554810   -0.131120    0.506680   -0.535033    0.140422
H    -1.085401    0.956601    0.801052    0.535511   -0.454218    0.044940
13
* Frequency(10)  456.2940
C     1.730050    0.403733   -0.035998    0.226765    0.191360    0.107314
C     1.301777   -0.927545    0.159816   -0.339709    0.121598   -0.154271
N     0.118833   -1.643779    0.398975   -0.148680   -0.333864    0.192235
C    -1.075677   -1.017682    0.218201   -0.183297   -0.418351    0.088630
N    -0.670304    0.463669   -0.027175    0.476482   -0.421113    0.015684
C     0.774778    1.439983   -0.297891    0.564740    0.512007   -0.068795
O    -2.239914   -1.342309    0.223823   -0.371572   -0.019558   -0.012536
O     0.494529    2.580746   -0.623474   -0.210146    0.473626   -0.146296
H     2.148932   -1.626670    0.186087   -0.266061    0.137442   -0.497385
H     0.194429   -2.661896    0.565327    0.280711   -0.379630    0.150605
H    -1.301818    0.774627   -0.778936    0.421775   -0.329582    0.116355
H     2.844168    0.530048   -0.124621    0.506680   -0.535033    0.140422
H    -1.060617    0.935579    0.803132    0.535511   -0.454218    0.044940
13
* Frequency(10)  456.2940
C     1.732208    0.405554   -0.034977    0.226765    0.191360    0.107314
C     1.298544   -0.926388    0.158349   -0.339709    0.121598   -0.154271
N     0.117418   -1.646956    0.400804   -0.148680   -0.333864    0.192235
C    -1.077421   -1.021662    0.219044   -0.183297   -0.418351    0.088630
N    -0.665770    0.459662   -0.027026    0.476482   -0.421113    0.015684
C     0.780151    1.444855   -0.298546    0.564740    0.512007   -0.068795
O    -2.243449   -1.342496    0.223704   -0.371572   -0.019558   -0.012536
O     0.492530    2.585252   -0.624866   -0.210146    0.473626   -0.146296
H     2.146400   -1.625362    0.181355   -0.266061    0.137442   -0.497385
H     0.197100   -2.665508    0.566760    0.280711   -0.379630    0.150605
H    -1.297805    0.771491   -0.777829    0.421775   -0.329582    0.116355
H     2.848989    0.524957   -0.123285    0.506680   -0.535033    0.140422
H    -1.055522    0.931257    0.803560    0.535511   -0.454218    0.044940
13
* Frequency(10)  456.2940
C     1.725794    0.400141   -0.038012    0.226765    0.191360    0.107314
C     1.308153   -0.929827    0.162712   -0.339709    0.121598   -0.154271
N     0.121623   -1.637513    0.395367   -0.148680   -0.333864    0.192235
C    -1.072237   -1.009829    0.216537   -0.183297   -0.418351    0.088630
N    -0.679247    0.471573   -0.027470    0.476482   -0.421113    0.015684
C     0.764178    1.430373   -0.296600    0.564740    0.512007   -0.068795
O    -2.232940   -1.341942    0.224058   -0.371572   -0.019558   -0.012536
O     0.498474    2.571856   -0.620728   -0.210146    0.473626   -0.146296
H     2.153926   -1.629250    0.195423   -0.266061    0.137442   -0.497385
H     0.189160   -2.654771    0.562500    0.280711   -0.379630    0.150605
H    -1.309735    0.780813   -0.781120    0.421775   -0.329582    0.116355
H     2.834658    0.540090   -0.127256    0.506680   -0.535033    0.140422
H    -1.070668    0.944104    0.802289    0.535511   -0.454218    0.044940
13
* Frequency(10)  456.2940
C     1.711504    0.388082   -0.044775    0.226765    0.191360    0.107314
C     1.329560   -0.937490    0.172434   -0.339709    0.121598   -0.154271
N     0.130993   -1.616474    0.383253   -0.148680   -0.333864    0.192235
C    -1.060686   -0.983466    0.210952   -0.183297   -0.418351    0.088630
N    -0.709274    0.498110   -0.028458    0.476482   -0.421113    0.015684
C     0.728590    1.398108   -0.292264    0.564740    0.512007   -0.068795
O    -2.209524   -1.340710    0.224848   -0.371572   -0.019558   -0.012536
O     0.511717    2.542009   -0.611509   -0.210146    0.473626   -0.146296
H     2.170692   -1.637911    0.226766   -0.266061    0.137442   -0.497385
H     0.171471   -2.630848    0.553010    0.280711   -0.379630    0.150605
H    -1.336314    0.801582   -0.788452    0.421775   -0.329582    0.116355
H     2.802729    0.573807   -0.136105    0.506680   -0.535033    0.140422
H    -1.104414    0.972728    0.799457    0.535511   -0.454218    0.044940
13
* Frequency(10)  456.2940
C     1.690886    0.370684   -0.054532    0.226765    0.191360    0.107314
C     1.360447   -0.948546    0.186460   -0.339709    0.121598   -0.154271
N     0.144511   -1.586118    0.365775   -0.148680   -0.333864    0.192235
C    -1.044020   -0.945429    0.202894   -0.183297   -0.418351    0.088630
N    -0.752596    0.536399   -0.029884    0.476482   -0.421113    0.015684
C     0.677242    1.351555   -0.286010    0.564740    0.512007   -0.068795
O    -2.175740   -1.338932    0.225988   -0.371572   -0.019558   -0.012536
O     0.530823    2.498947   -0.598208   -0.210146    0.473626   -0.146296
H     2.194883   -1.650407    0.271990   -0.266061    0.137442   -0.497385
H     0.145948   -2.596331    0.539316    0.280711   -0.379630    0.150605
H    -1.374662    0.831548   -0.799031    0.421775   -0.329582    0.116355
H     2.756660    0.622453   -0.148873    0.506680   -0.535033    0.140422
H    -1.153104    1.014026    0.795371    0.535511   -0.454218    0.044940
13
* Frequency(10)  456.2940
C     1.666175    0.349830   -0.066226    0.226765    0.191360    0.107314
C     1.397466   -0.961797    0.203272   -0.339709    0.121598   -0.154271
N     0.160713   -1.549736    0.344826   -0.148680   -0.333864    0.192235
C    -1.024046   -0.899840    0.193235   -0.183297   -0.418351    0.088630
N    -0.804520    0.582289   -0.031593    0.476482   -0.421113    0.015684
C     0.615701    1.295760   -0.278513    0.564740    0.512007   -0.068795
O    -2.135249   -1.336800    0.227354   -0.371572   -0.019558   -0.012536
O     0.553724    2.447334   -0.582265   -0.210146    0.473626   -0.146296
H     2.223877   -1.665385    0.326191   -0.266061    0.137442   -0.497385
H     0.115358   -2.554961    0.522904    0.280711   -0.379630    0.150605
H    -1.420625    0.867464   -0.811711    0.421775   -0.329582    0.116355
H     2.701446    0.680757   -0.164175    0.506680   -0.535033    0.140422
H    -1.211460    1.063524    0.790474    0.535511   -0.454218    0.044940
13
* Frequency(10)  456.2940
C     1.640048    0.327783   -0.078591    0.226765    0.191360    0.107314
C     1.436606   -0.975807    0.221046   -0.339709    0.121598   -0.154271
N     0.177844   -1.511269    0.322678   -0.148680   -0.333864    0.192235
C    -1.002927   -0.851639    0.183024   -0.183297   -0.418351    0.088630
N    -0.859419    0.630808   -0.033400    0.476482   -0.421113    0.015684
C     0.550633    1.236769   -0.270586    0.564740    0.512007   -0.068795
O    -2.092438   -1.334547    0.228798   -0.371572   -0.019558   -0.012536
O     0.577936    2.392765   -0.565410   -0.210146    0.473626   -0.146296
H     2.254531   -1.681220    0.383498   -0.266061    0.137442   -0.497385
H     0.083015   -2.511222    0.505552    0.280711   -0.379630    0.150605
H    -1.469220    0.905437   -0.825117    0.421775   -0.329582    0.116355
H     2.643068    0.742401   -0.180354    0.506680   -0.535033    0.140422
H    -1.273160    1.115857    0.785296    0.535511   -0.454218    0.044940
13
* Frequency(10)  456.2940
C     1.615336    0.306929   -0.090285    0.226765    0.191360    0.107314
C     1.473626   -0.989058    0.237857   -0.339709    0.121598   -0.154271
N     0.194046   -1.474887    0.301729   -0.148680   -0.333864    0.192235
C    -0.982952   -0.806050    0.173365   -0.183297   -0.418351    0.088630
N    -0.911343    0.676698   -0.035109    0.476482   -0.421113    0.015684
C     0.489092    1.180973   -0.263090    0.564740    0.512007   -0.068795
O    -2.051946   -1.332416    0.230165   -0.371572   -0.019558   -0.012536
O     0.600836    2.341152   -0.549468   -0.210146    0.473626   -0.146296
H     2.283525   -1.696198    0.437700   -0.266061    0.137442   -0.497385
H     0.052425   -2.469852    0.489140    0.280711   -0.379630    0.150605
H    -1.515182    0.941353   -0.837797    0.421775   -0.329582    0.116355
H     2.587853    0.800706   -0.195656    0.506680   -0.535033    0.140422
H    -1.331516    1.165355    0.780399    0.535511   -0.454218    0.044940
13
* Frequency(10)  456.2940
C     1.594719    0.289530   -0.100042    0.226765    0.191360    0.107314
C     1.504513   -1.000114    0.251884   -0.339709    0.121598   -0.154271
N     0.207564   -1.444531    0.284251   -0.148680   -0.333864    0.192235
C    -0.966287   -0.768013    0.165307   -0.183297   -0.418351    0.088630
N    -0.954665    0.714986   -0.036536    0.476482   -0.421113    0.015684
C     0.437745    1.134421   -0.256835    0.564740    0.512007   -0.068795
O    -2.018162   -1.330637    0.231304   -0.371572   -0.019558   -0.012536
O     0.619943    2.298089   -0.536166   -0.210146    0.473626   -0.146296
H     2.307716   -1.708694    0.482923   -0.266061    0.137442   -0.497385
H     0.026902   -2.435335    0.475447    0.280711   -0.379630    0.150605
H    -1.553531    0.971319   -0.848376    0.421775   -0.329582    0.116355
H     2.541785    0.849352   -0.208424    0.506680   -0.535033    0.140422
H    -1.380206    1.206653    0.776313    0.535511   -0.454218    0.044940
13
* Frequency(10)  456.2940
C     1.580428    0.277471   -0.106805    0.226765    0.191360    0.107314
C     1.525920   -1.007777    0.261606   -0.339709    0.121598   -0.154271
N     0.216933   -1.423492    0.272137   -0.148680   -0.333864    0.192235
C    -0.954736   -0.741649    0.159722   -0.183297   -0.418351    0.088630
N    -0.984692    0.741524   -0.037524    0.476482   -0.421113    0.015684
C     0.402156    1.102156   -0.252499    0.564740    0.512007   -0.068795
O    -1.994747   -1.329405    0.232094   -0.371572   -0.019558   -0.012536
O     0.633186    2.268242   -0.526947   -0.210146    0.473626   -0.146296
H     2.324482   -1.717355    0.514267   -0.266061    0.137442   -0.497385
H     0.009213   -2.411412    0.465956    0.280711   -0.379630    0.150605
H    -1.580110    0.992088   -0.855708    0.421775   -0.329582    0.116355
H     2.509855    0.883068   -0.217273    0.506680   -0.535033    0.140422
H    -1.413952    1.235277    0.773481    0.535511   -0.454218    0.044940
13
* Frequency(10)  456.2940
C     1.574015    0.272059   -0.109840    0.226765    0.191360    0.107314
C     1.535528   -1.011216    0.265969   -0.339709    0.121598   -0.154271
N     0.221139   -1.414049    0.266699   -0.148680   -0.333864    0.192235
C    -0.949551   -0.729817    0.157215   -0.183297   -0.418351    0.088630
N    -0.998169    0.753435   -0.037968    0.476482   -0.421113    0.015684
C     0.386183    1.087674   -0.250554    0.564740    0.512007   -0.068795
O    -1.984237   -1.328852    0.232449   -0.371572   -0.019558   -0.012536
O     0.639130    2.254846   -0.522809   -0.210146    0.473626   -0.146296
H     2.332007   -1.721243    0.528335   -0.266061    0.137442   -0.497385
H     0.001273   -2.400675    0.461697    0.280711   -0.379630    0.150605
H    -1.592039    1.001410   -0.858999    0.421775   -0.329582    0.116355
H     2.495524    0.898201   -0.221244    0.506680   -0.535033    0.140422
H    -1.429099    1.248124    0.772210    0.535511   -0.454218    0.044940
13
* Frequency(10)  456.2940
C     1.576172    0.273880   -0.108819    0.226765    0.191360    0.107314
C     1.532296   -1.010059    0.264501   -0.339709    0.121598   -0.154271
N     0.219724   -1.417226    0.268528   -0.148680   -0.333864    0.192235
C    -0.951295   -0.733797    0.158058   -0.183297   -0.418351    0.088630
N    -0.993635    0.749428   -0.037818    0.476482   -0.421113    0.015684
C     0.391556    1.092545   -0.251208    0.564740    0.512007   -0.068795
O    -1.987773   -1.329038    0.232330   -0.371572   -0.019558   -0.012536
O     0.637130    2.259353   -0.524201   -0.210146    0.473626   -0.146296
H     2.329476   -1.719935    0.523603   -0.266061    0.137442   -0.497385
H     0.003944   -2.404287    0.463129    0.280711   -0.379630    0.150605
H    -1.588026    0.998274   -0.857892    0.421775   -0.329582    0.116355
H     2.500345    0.893111   -0.219908    0.506680   -0.535033    0.140422
H    -1.424004    1.243802    0.772637    0.535511   -0.454218    0.044940
13
* Frequency(10)  456.2940
C     1.586667    0.282736   -0.103853    0.226765    0.191360    0.107314
C     1.516574   -1.004431    0.257361   -0.339709    0.121598   -0.154271
N     0.212843   -1.432677    0.277425   -0.148680   -0.333864    0.192235
C    -0.959779   -0.753159    0.162160   -0.183297   -0.418351    0.088630
N    -0.971583    0.729938   -0.037092    0.476482   -0.421113    0.015684
C     0.417694    1.116242   -0.254392    0.564740    0.512007   -0.068795
O    -2.004970   -1.329943    0.231749   -0.371572   -0.019558   -0.012536
O     0.627404    2.281273   -0.530972   -0.210146    0.473626   -0.146296
H     2.317162   -1.713574    0.500583   -0.266061    0.137442   -0.497385
H     0.016936   -2.421857    0.470100    0.280711   -0.379630    0.150605
H    -1.568506    0.983021   -0.852507    0.421775   -0.329582    0.116355
H     2.523795    0.868348   -0.213409    0.506680   -0.535033    0.140422
H    -1.399219    1.222780    0.774717    0.535511   -0.454218    0.044940
13
* Frequency(10)  456.2940
C     1.604363    0.297669   -0.095478    0.226765    0.191360    0.107314
C     1.490065   -0.994942    0.245323   -0.339709    0.121598   -0.154271
N     0.201241   -1.458730    0.292426   -0.148680   -0.333864    0.192235
C    -0.974082   -0.785805    0.169076   -0.183297   -0.418351    0.088630
N    -0.934401    0.697077   -0.035868    0.476482   -0.421113    0.015684
C     0.461762    1.156196   -0.259760    0.564740    0.512007   -0.068795
O    -2.033965   -1.331469    0.230771   -0.371572   -0.019558   -0.012536
O     0.611006    2.318232   -0.542388   -0.210146    0.473626   -0.146296
H     2.296400   -1.702849    0.461770   -0.266061    0.137442   -0.497385
H     0.038841   -2.451481    0.481852    0.280711   -0.379630    0.150605
H    -1.535593    0.957302   -0.843427    0.421775   -0.329582    0.116355
H     2.563333    0.826598   -0.202452    0.506680   -0.535033    0.140422
H    -1.357431    1.187336    0.778224    0.535511   -0.454218    0.044940
13
* Frequency(10)  456.2940
C     1.627341    0.317059   -0.084604    0.226765    0.191360    0.107314
C     1.455643   -0.982621    0.229691   -0.339709    0.121598   -0.154271
N     0.186175   -1.492560    0.311905   -0.148680   -0.333864    0.192235
C    -0.992656   -0.828196    0.178057   -0.183297   -0.418351    0.088630
N    -0.886119    0.654406   -0.034279    0.476482   -0.421113    0.015684
C     0.518987    1.208077   -0.266731    0.564740    0.512007   -0.068795
O    -2.071616   -1.333451    0.229501   -0.371572   -0.019558   -0.012536
O     0.589712    2.366224   -0.557212   -0.210146    0.473626   -0.146296
H     2.269440   -1.688922    0.411370   -0.266061    0.137442   -0.497385
H     0.067285   -2.489948    0.497113    0.280711   -0.379630    0.150605
H    -1.492855    0.923906   -0.831637    0.421775   -0.329582    0.116355
H     2.614675    0.772383   -0.188223    0.506680   -0.535033    0.140422
H    -1.303168    1.141310    0.782778    0.535511   -0.454218    0.044940
13
* Frequency(10)  456.2940
C     1.653111    0.338806   -0.072409    0.226765    0.191360    0.107314
C     1.417036   -0.968802    0.212159   -0.339709    0.121598   -0.154271
N     0.169278   -1.530502    0.333752   -0.148680   -0.333864    0.192235
C    -1.013486   -0.875739    0.188129   -0.183297   -0.418351    0.088630
N    -0.831970    0.606548   -0.032497    0.476482   -0.421113    0.015684
C     0.583167    1.266264   -0.274550    0.564740    0.512007   -0.068795
O    -2.113843   -1.335674    0.228076   -0.371572   -0.019558   -0.012536
O     0.565830    2.420049   -0.573838   -0.210146    0.473626   -0.146296
H     2.239204   -1.673303    0.354845   -0.266061    0.137442   -0.497385
H     0.099186   -2.533091    0.514228    0.280711   -0.379630    0.150605
H    -1.444922    0.886451   -0.818414    0.421775   -0.329582    0.116355
H     2.672257    0.711579   -0.172265    0.506680   -0.535033    0.140422
H    -1.242310    1.089691    0.787885    0.535511   -0.454218    0.044940
