13
* (null), Energy   -1000.0000000
C     1.653111    0.338806   -0.072409   -0.209452    0.330138   -0.072259
C     1.417036   -0.968802    0.212159    0.190139    0.054652   -0.011479
N     0.169278   -1.530502    0.333752    0.061631   -0.077505    0.016716
C    -1.013486   -0.875739    0.188129    0.007692    0.013142   -0.002901
N    -0.831970    0.606548   -0.032497    0.022745    0.061479   -0.012587
C     0.583167    1.266264   -0.274550    0.124284    0.013864   -0.009174
O    -2.113843   -1.335674    0.228076   -0.043679   -0.018173    0.001840
O     0.565830    2.420049   -0.573838   -0.005370   -0.121060    0.031581
H     2.239204   -1.673303    0.354845   -0.850872   -1.144321    0.249104
H     0.099186   -2.533091    0.514228   -0.789061   -0.037061    0.006260
H    -1.444922    0.886451   -0.818414   -0.193886   -0.222781    0.056407
H     2.672257    0.711579   -0.172265    0.250088   -0.884061    0.201557
H    -1.242310    1.089691    0.787885   -0.152688   -0.185981    0.040530
13
* Frequency(28) 1421.8899
C     1.629308    0.376325   -0.080620   -0.209452    0.330138   -0.072259
C     1.438645   -0.962591    0.210854    0.190139    0.054652   -0.011479
N     0.176282   -1.539310    0.335651    0.061631   -0.077505    0.016716
C    -1.012612   -0.874246    0.187800    0.007692    0.013142   -0.002901
N    -0.829385    0.613535   -0.033927    0.022745    0.061479   -0.012587
C     0.597291    1.267840   -0.275592    0.124284    0.013864   -0.009174
O    -2.118807   -1.337739    0.228285   -0.043679   -0.018173    0.001840
O     0.565220    2.406291   -0.570249   -0.005370   -0.121060    0.031581
H     2.142507   -1.803349    0.383154   -0.850872   -1.144321    0.249104
H     0.009514   -2.537303    0.514940   -0.789061   -0.037061    0.006260
H    -1.466956    0.861133   -0.812004   -0.193886   -0.222781    0.056407
H     2.700678    0.611110   -0.149359    0.250088   -0.884061    0.201557
H    -1.259662    1.068555    0.792491   -0.152688   -0.185981    0.040530
13
* Frequency(28) 1421.8899
C     1.608084    0.409778   -0.087942   -0.209452    0.330138   -0.072259
C     1.457911   -0.957053    0.209691    0.190139    0.054652   -0.011479
N     0.182527   -1.547164    0.337345    0.061631   -0.077505    0.016716
C    -1.011833   -0.872914    0.187506    0.007692    0.013142   -0.002901
N    -0.827080    0.619765   -0.035203    0.022745    0.061479   -0.012587
C     0.609885    1.269245   -0.276522    0.124284    0.013864   -0.009174
O    -2.123233   -1.339580    0.228472   -0.043679   -0.018173    0.001840
O     0.564675    2.394024   -0.567049   -0.005370   -0.121060    0.031581
H     2.056288   -1.919302    0.408396   -0.850872   -1.144321    0.249104
H    -0.070442   -2.541059    0.515574   -0.789061   -0.037061    0.006260
H    -1.486603    0.838558   -0.806288   -0.193886   -0.222781    0.056407
H     2.726019    0.521529   -0.128935    0.250088   -0.884061    0.201557
H    -1.275134    1.049709    0.796598   -0.152688   -0.185981    0.040530
13
* Frequency(28) 1421.8899
C     1.591740    0.435539   -0.093581   -0.209452    0.330138   -0.072259
C     1.472749   -0.952788    0.208795    0.190139    0.054652   -0.011479
N     0.187337   -1.553212    0.338650    0.061631   -0.077505    0.016716
C    -1.011232   -0.871889    0.187280    0.007692    0.013142   -0.002901
N    -0.825305    0.624562   -0.036185    0.022745    0.061479   -0.012587
C     0.619583    1.270327   -0.277238    0.124284    0.013864   -0.009174
O    -2.126642   -1.340998    0.228615   -0.043679   -0.018173    0.001840
O     0.564256    2.384578   -0.564584   -0.005370   -0.121060    0.031581
H     1.989891   -2.008598    0.427834   -0.850872   -1.144321    0.249104
H    -0.132015   -2.543951    0.516062   -0.789061   -0.037061    0.006260
H    -1.501732    0.821174   -0.801886   -0.193886   -0.222781    0.056407
H     2.745535    0.452542   -0.113207    0.250088   -0.884061    0.201557
H    -1.287049    1.035197    0.799760   -0.152688   -0.185981    0.040530
13
* Frequency(28) 1421.8899
C     1.582046    0.450819   -0.096925   -0.209452    0.330138   -0.072259
C     1.481549   -0.950259    0.208264    0.190139    0.054652   -0.011479
N     0.190189   -1.556799    0.339423    0.061631   -0.077505    0.016716
C    -1.010876   -0.871281    0.187145    0.007692    0.013142   -0.002901
N    -0.824252    0.627407   -0.036767    0.022745    0.061479   -0.012587
C     0.625335    1.270968   -0.277662    0.124284    0.013864   -0.009174
O    -2.128663   -1.341840    0.228700   -0.043679   -0.018173    0.001840
O     0.564008    2.378975   -0.563123   -0.005370   -0.121060    0.031581
H     1.950512   -2.061559    0.439363   -0.850872   -1.144321    0.249104
H    -0.168534   -2.545666    0.516352   -0.789061   -0.037061    0.006260
H    -1.510706    0.810863   -0.799276   -0.193886   -0.222781    0.056407
H     2.757109    0.411626   -0.103878    0.250088   -0.884061    0.201557
H    -1.294116    1.026589    0.801636   -0.152688   -0.185981    0.040530
13
* Frequency(28) 1421.8899
C     1.580053    0.453960   -0.097613   -0.209452    0.330138   -0.072259
C     1.483358   -0.949739    0.208155    0.190139    0.054652   -0.011479
N     0.190776   -1.557537    0.339582    0.061631   -0.077505    0.016716
C    -1.010803   -0.871156    0.187118    0.007692    0.013142   -0.002901
N    -0.824036    0.627992   -0.036887    0.022745    0.061479   -0.012587
C     0.626518    1.271100   -0.277750    0.124284    0.013864   -0.009174
O    -2.129079   -1.342012    0.228718   -0.043679   -0.018173    0.001840
O     0.563957    2.377823   -0.562822   -0.005370   -0.121060    0.031581
H     1.942416   -2.072447    0.441733   -0.850872   -1.144321    0.249104
H    -0.176042   -2.546019    0.516412   -0.789061   -0.037061    0.006260
H    -1.512551    0.808744   -0.798739   -0.193886   -0.222781    0.056407
H     2.759489    0.403215   -0.101961    0.250088   -0.884061    0.201557
H    -1.295568    1.024819    0.802022   -0.152688   -0.185981    0.040530
13
* Frequency(28) 1421.8899
C     1.585977    0.444622   -0.095569   -0.209452    0.330138   -0.072259
C     1.477980   -0.951285    0.208479    0.190139    0.054652   -0.011479
N     0.189032   -1.555344    0.339110    0.061631   -0.077505    0.016716
C    -1.011021   -0.871527    0.187200    0.007692    0.013142   -0.002901
N    -0.824679    0.626253   -0.036531    0.022745    0.061479   -0.012587
C     0.623003    1.270708   -0.277490    0.124284    0.013864   -0.009174
O    -2.127843   -1.341498    0.228666   -0.043679   -0.018173    0.001840
O     0.564109    2.381247   -0.563715   -0.005370   -0.121060    0.031581
H     1.966482   -2.040081    0.434688   -0.850872   -1.144321    0.249104
H    -0.153724   -2.544970    0.516235   -0.789061   -0.037061    0.006260
H    -1.507067    0.815045   -0.800334   -0.193886   -0.222781    0.056407
H     2.752415    0.428219   -0.107662    0.250088   -0.884061    0.201557
H    -1.291250    1.030080    0.800875   -0.152688   -0.185981    0.040530
13
* Frequency(28) 1421.8899
C     1.599177    0.423818   -0.091016   -0.209452    0.330138   -0.072259
C     1.465998   -0.954729    0.209203    0.190139    0.054652   -0.011479
N     0.185149   -1.550460    0.338056    0.061631   -0.077505    0.016716
C    -1.011505   -0.872355    0.187382    0.007692    0.013142   -0.002901
N    -0.826113    0.622379   -0.035738    0.022745    0.061479   -0.012587
C     0.615171    1.269835   -0.276912    0.124284    0.013864   -0.009174
O    -2.125091   -1.340353    0.228550   -0.043679   -0.018173    0.001840
O     0.564447    2.388876   -0.565706   -0.005370   -0.121060    0.031581
H     2.020102   -1.967969    0.418990   -0.850872   -1.144321    0.249104
H    -0.103999   -2.542635    0.515840   -0.789061   -0.037061    0.006260
H    -1.494849    0.829084   -0.803889   -0.193886   -0.222781    0.056407
H     2.736655    0.483931   -0.120363    0.250088   -0.884061    0.201557
H    -1.281628    1.041800    0.798321   -0.152688   -0.185981    0.040530
13
* Frequency(28) 1421.8899
C     1.618220    0.393801   -0.084446   -0.209452    0.330138   -0.072259
C     1.448710   -0.959698    0.210247    0.190139    0.054652   -0.011479
N     0.179545   -1.543413    0.336536    0.061631   -0.077505    0.016716
C    -1.012205   -0.873550    0.187646    0.007692    0.013142   -0.002901
N    -0.828181    0.616790   -0.034594    0.022745    0.061479   -0.012587
C     0.603871    1.268574   -0.276078    0.124284    0.013864   -0.009174
O    -2.121120   -1.338701    0.228383   -0.043679   -0.018173    0.001840
O     0.564935    2.399883   -0.568577   -0.005370   -0.121060    0.031581
H     2.097464   -1.863925    0.396341   -0.850872   -1.144321    0.249104
H    -0.032257   -2.539265    0.515271   -0.789061   -0.037061    0.006260
H    -1.477220    0.849339   -0.809018   -0.193886   -0.222781    0.056407
H     2.713917    0.564311   -0.138689    0.250088   -0.884061    0.201557
H    -1.267745    1.058710    0.794636   -0.152688   -0.185981    0.040530
13
* Frequency(28) 1421.8899
C     1.641045    0.357825   -0.076571   -0.209452    0.330138   -0.072259
C     1.427990   -0.965653    0.211497    0.190139    0.054652   -0.011479
N     0.172829   -1.534967    0.334715    0.061631   -0.077505    0.016716
C    -1.013043   -0.874982    0.187962    0.007692    0.013142   -0.002901
N    -0.830659    0.610090   -0.033222    0.022745    0.061479   -0.012587
C     0.590327    1.267063   -0.275078    0.124284    0.013864   -0.009174
O    -2.116360   -1.336721    0.228182   -0.043679   -0.018173    0.001840
O     0.565521    2.413075   -0.572018   -0.005370   -0.121060    0.031581
H     2.190187   -1.739225    0.369195   -0.850872   -1.144321    0.249104
H     0.053730   -2.535226    0.514589   -0.789061   -0.037061    0.006260
H    -1.456092    0.873617   -0.815164   -0.193886   -0.222781    0.056407
H     2.686664    0.660650   -0.160653    0.250088   -0.884061    0.201557
H    -1.251106    1.078977    0.790220   -0.152688   -0.185981    0.040530
13
* Frequency(28) 1421.8899
C     1.665177    0.319788   -0.068246   -0.209452    0.330138   -0.072259
C     1.406083   -0.971950    0.212820    0.190139    0.054652   -0.011479
N     0.165728   -1.526037    0.332789    0.061631   -0.077505    0.016716
C    -1.013929   -0.876496    0.188297    0.007692    0.013142   -0.002901
N    -0.833280    0.603007   -0.031772    0.022745    0.061479   -0.012587
C     0.576007    1.265466   -0.274021    0.124284    0.013864   -0.009174
O    -2.111327   -1.334627    0.227970   -0.043679   -0.018173    0.001840
O     0.566139    2.427023   -0.575657   -0.005370   -0.121060    0.031581
H     2.288221   -1.607380    0.340494   -0.850872   -1.144321    0.249104
H     0.144643   -2.530956    0.513868   -0.789061   -0.037061    0.006260
H    -1.433753    0.899285   -0.821664   -0.193886   -0.222781    0.056407
H     2.657850    0.762508   -0.183876    0.250088   -0.884061    0.201557
H    -1.233514    1.100405    0.785550   -0.152688   -0.185981    0.040530
13
* Frequency(28) 1421.8899
C     1.688002    0.283812   -0.060371   -0.209452    0.330138   -0.072259
C     1.385363   -0.977906    0.214071    0.190139    0.054652   -0.011479
N     0.159012   -1.517591    0.330967    0.061631   -0.077505    0.016716
C    -1.014768   -0.877929    0.188613    0.007692    0.013142   -0.002901
N    -0.835758    0.596307   -0.030400    0.022745    0.061479   -0.012587
C     0.562464    1.263955   -0.273021    0.124284    0.013864   -0.009174
O    -2.106567   -1.332646    0.227770   -0.043679   -0.018173    0.001840
O     0.566724    2.440216   -0.579098   -0.005370   -0.121060    0.031581
H     2.380943   -1.482680    0.313349   -0.850872   -1.144321    0.249104
H     0.230630   -2.526918    0.513186   -0.789061   -0.037061    0.006260
H    -1.412625    0.923562   -0.827810   -0.193886   -0.222781    0.056407
H     2.630597    0.858848   -0.205840    0.250088   -0.884061    0.201557
H    -1.216875    1.120672    0.781133   -0.152688   -0.185981    0.040530
13
* Frequency(28) 1421.8899
C     1.707046    0.253795   -0.053802   -0.209452    0.330138   -0.072259
C     1.368075   -0.982875    0.215115    0.190139    0.054652   -0.011479
N     0.153408   -1.510545    0.329447    0.061631   -0.077505    0.016716
C    -1.015467   -0.879123    0.188876    0.007692    0.013142   -0.002901
N    -0.837826    0.590717   -0.029256    0.022745    0.061479   -0.012587
C     0.551164    1.262694   -0.272187    0.124284    0.013864   -0.009174
O    -2.102596   -1.330994    0.227603   -0.043679   -0.018173    0.001840
O     0.567213    2.451223   -0.581970   -0.005370   -0.121060    0.031581
H     2.458306   -1.378636    0.290700   -0.850872   -1.144321    0.249104
H     0.302372   -2.523548    0.512616   -0.789061   -0.037061    0.006260
H    -1.394996    0.943817   -0.832939   -0.193886   -0.222781    0.056407
H     2.607858    0.939228   -0.224166    0.250088   -0.884061    0.201557
H    -1.202993    1.137581    0.777448   -0.152688   -0.185981    0.040530
13
* Frequency(28) 1421.8899
C     1.720245    0.232990   -0.049248   -0.209452    0.330138   -0.072259
C     1.356093   -0.986319    0.215838    0.190139    0.054652   -0.011479
N     0.149524   -1.505660    0.328394    0.061631   -0.077505    0.016716
C    -1.015952   -0.879952    0.189059    0.007692    0.013142   -0.002901
N    -0.839260    0.586843   -0.028462    0.022745    0.061479   -0.012587
C     0.543332    1.261821   -0.271609    0.124284    0.013864   -0.009174
O    -2.099843   -1.329849    0.227487   -0.043679   -0.018173    0.001840
O     0.567551    2.458851   -0.583960   -0.005370   -0.121060    0.031581
H     2.511926   -1.306524    0.275002   -0.850872   -1.144321    0.249104
H     0.352097   -2.521213    0.512222   -0.789061   -0.037061    0.006260
H    -1.382778    0.957856   -0.836494   -0.193886   -0.222781    0.056407
H     2.592098    0.994939   -0.236868    0.250088   -0.884061    0.201557
H    -1.193371    1.149301    0.774894   -0.152688   -0.185981    0.040530
13
* Frequency(28) 1421.8899
C     1.726169    0.223653   -0.047204   -0.209452    0.330138   -0.072259
C     1.350715   -0.987865    0.216163    0.190139    0.054652   -0.011479
N     0.147781   -1.503468    0.327921    0.061631   -0.077505    0.016716
C    -1.016169   -0.880323    0.189141    0.007692    0.013142   -0.002901
N    -0.839903    0.585104   -0.028106    0.022745    0.061479   -0.012587
C     0.539816    1.261429   -0.271350    0.124284    0.013864   -0.009174
O    -2.098608   -1.329335    0.227435   -0.043679   -0.018173    0.001840
O     0.567703    2.462276   -0.584853   -0.005370   -0.121060    0.031581
H     2.535992   -1.274158    0.267956   -0.850872   -1.144321    0.249104
H     0.374415   -2.520164    0.512045   -0.789061   -0.037061    0.006260
H    -1.377294    0.964157   -0.838089   -0.193886   -0.222781    0.056407
H     2.585025    1.019944   -0.242568    0.250088   -0.884061    0.201557
H    -1.189052    1.154562    0.773748   -0.152688   -0.185981    0.040530
13
* Frequency(28) 1421.8899
C     1.724176    0.226794   -0.047892   -0.209452    0.330138   -0.072259
C     1.352524   -0.987345    0.216054    0.190139    0.054652   -0.011479
N     0.148368   -1.504206    0.328080    0.061631   -0.077505    0.016716
C    -1.016096   -0.880198    0.189114    0.007692    0.013142   -0.002901
N    -0.839687    0.585689   -0.028226    0.022745    0.061479   -0.012587
C     0.540999    1.261560   -0.271437    0.124284    0.013864   -0.009174
O    -2.099023   -1.329508    0.227452   -0.043679   -0.018173    0.001840
O     0.567652    2.461124   -0.584553   -0.005370   -0.121060    0.031581
H     2.527896   -1.285046    0.270326   -0.850872   -1.144321    0.249104
H     0.366907   -2.520517    0.512104   -0.789061   -0.037061    0.006260
H    -1.379139    0.962038   -0.837553   -0.193886   -0.222781    0.056407
H     2.587404    1.011533   -0.240651    0.250088   -0.884061    0.201557
H    -1.190505    1.152792    0.774133   -0.152688   -0.185981    0.040530
13
* Frequency(28) 1421.8899
C     1.714483    0.242073   -0.051236   -0.209452    0.330138   -0.072259
C     1.361324   -0.984815    0.215522    0.190139    0.054652   -0.011479
N     0.151220   -1.507793    0.328854    0.061631   -0.077505    0.016716
C    -1.015740   -0.879590    0.188979    0.007692    0.013142   -0.002901
N    -0.838634    0.588535   -0.028809    0.022745    0.061479   -0.012587
C     0.546751    1.262202   -0.271861    0.124284    0.013864   -0.009174
O    -2.101045   -1.330349    0.227537   -0.043679   -0.018173    0.001840
O     0.567403    2.455521   -0.583091   -0.005370   -0.121060    0.031581
H     2.488516   -1.338007    0.281855   -0.850872   -1.144321    0.249104
H     0.330388   -2.522232    0.512394   -0.789061   -0.037061    0.006260
H    -1.388112    0.951727   -0.834942   -0.193886   -0.222781    0.056407
H     2.598979    0.970617   -0.231322    0.250088   -0.884061    0.201557
H    -1.197571    1.144185    0.776009   -0.152688   -0.185981    0.040530
13
* Frequency(28) 1421.8899
C     1.698138    0.267835   -0.056875   -0.209452    0.330138   -0.072259
C     1.376161   -0.980551    0.214626    0.190139    0.054652   -0.011479
N     0.156029   -1.513841    0.330158    0.061631   -0.077505    0.016716
C    -1.015140   -0.878564    0.188753    0.007692    0.013142   -0.002901
N    -0.836859    0.593332   -0.029791    0.022745    0.061479   -0.012587
C     0.556449    1.263284   -0.272577    0.124284    0.013864   -0.009174
O    -2.104453   -1.331767    0.227681   -0.043679   -0.018173    0.001840
O     0.566984    2.446074   -0.580627   -0.005370   -0.121060    0.031581
H     2.422120   -1.427303    0.301294   -0.850872   -1.144321    0.249104
H     0.268814   -2.525124    0.512883   -0.789061   -0.037061    0.006260
H    -1.403242    0.934343   -0.830540   -0.193886   -0.222781    0.056407
H     2.618494    0.901630   -0.215594    0.250088   -0.884061    0.201557
H    -1.209486    1.129672    0.779172   -0.152688   -0.185981    0.040530
13
* Frequency(28) 1421.8899
C     1.676914    0.301288   -0.064197   -0.209452    0.330138   -0.072259
C     1.395428   -0.975013    0.213463    0.190139    0.054652   -0.011479
N     0.162274   -1.521694    0.331852    0.061631   -0.077505    0.016716
C    -1.014360   -0.877233    0.188459    0.007692    0.013142   -0.002901
N    -0.834554    0.599562   -0.031066    0.022745    0.061479   -0.012587
C     0.569043    1.264689   -0.273507    0.124284    0.013864   -0.009174
O    -2.108879   -1.333608    0.227867   -0.043679   -0.018173    0.001840
O     0.566440    2.433807   -0.577427   -0.005370   -0.121060    0.031581
H     2.335901   -1.543256    0.326535   -0.850872   -1.144321    0.249104
H     0.188859   -2.528880    0.513517   -0.789061   -0.037061    0.006260
H    -1.422888    0.911768   -0.824824   -0.193886   -0.222781    0.056407
H     2.643836    0.812048   -0.195170    0.250088   -0.884061    0.201557
H    -1.224958    1.110826    0.783279   -0.152688   -0.185981    0.040530
13
* Frequency(28) 1421.8899
C     1.653111    0.338806   -0.072409   -0.209452    0.330138   -0.072259
C     1.417036   -0.968802    0.212159    0.190139    0.054652   -0.011479
N     0.169278   -1.530502    0.333752    0.061631   -0.077505    0.016716
C    -1.013486   -0.875739    0.188129    0.007692    0.013142   -0.002901
N    -0.831970    0.606548   -0.032497    0.022745    0.061479   -0.012587
C     0.583167    1.266264   -0.274550    0.124284    0.013864   -0.009174
O    -2.113843   -1.335674    0.228076   -0.043679   -0.018173    0.001840
O     0.565830    2.420049   -0.573838   -0.005370   -0.121060    0.031581
H     2.239204   -1.673303    0.354845   -0.850872   -1.144321    0.249104
H     0.099186   -2.533091    0.514228   -0.789061   -0.037061    0.006260
H    -1.444922    0.886451   -0.818414   -0.193886   -0.222781    0.056407
H     2.672257    0.711579   -0.172265    0.250088   -0.884061    0.201557
H    -1.242310    1.089691    0.787885   -0.152688   -0.185981    0.040530
