
                                 *****************
                                 * O   R   C   A *
                                 *****************

           --- An Ab Initio, DFT and Semiempirical electronic structure package ---

                  #######################################################
                  #                        -***-                        #
                  #          Department of theory and spectroscopy      #
                  #               Directorship: Frank Neese             #
                  #        Max Planck Institute fuer Kohlenforschung    #
                  #                Kaiser Wilhelm Platz 1               #
                  #                 D-45470 Muelheim/Ruhr               #
                  #                      Germany                        #
                  #                                                     #
                  #                  All rights reserved                #
                  #                        -***-                        #
                  #######################################################


                         Program Version 4.2.1 -  RELEASE  -


 With contributions from (in alphabetic order):
   Daniel Aravena         : Magnetic Suceptibility
   Michael Atanasov       : Ab Initio Ligand Field Theory (pilot matlab implementation)
   Alexander A. Auer      : GIAO ZORA, VPT2
   Ute Becker             : Parallelization
   Giovanni Bistoni       : ED, misc. LED, open-shell LED, HFLD
   Martin Brehm           : Molecular dynamics
   Dmytro Bykov           : SCF Hessian
   Vijay G. Chilkuri      : MRCI spin determinant printing, contributions to CSF-ICE
   Dipayan Datta          : RHF DLPNO-CCSD density
   Achintya Kumar Dutta   : EOM-CC, STEOM-CC
   Dmitry Ganyushin       : Spin-Orbit,Spin-Spin,Magnetic field MRCI
   Miquel Garcia          : C-PCM Hessian, Gaussian charge scheme
   Yang Guo               : DLPNO-NEVPT2, CIM, IAO-localization
   Andreas Hansen         : Spin unrestricted coupled pair/coupled cluster methods
   Benjamin Helmich-Paris : CASSCF linear response (MC-RPA)
   Lee Huntington         : MR-EOM, pCC
   Robert Izsak           : Overlap fitted RIJCOSX, COSX-SCS-MP3, EOM
   Christian Kollmar      : KDIIS, OOCD, Brueckner-CCSD(T), CCSD density
   Simone Kossmann        : Meta GGA functionals, TD-DFT gradient, OOMP2, MP2 Hessian
   Martin Krupicka        : AUTO-CI
   Lucas Lang             : DCDCAS
   Dagmar Lenk            : GEPOL surface, SMD
   Dimitrios Liakos       : Extrapolation schemes; Compound Job, initial MDCI parallelization
   Dimitrios Manganas     : Further ROCIS development; embedding schemes
   Dimitrios Pantazis     : SARC Basis sets
   Taras Petrenko         : DFT Hessian,TD-DFT gradient, ASA, ECA, R-Raman, ABS, FL, XAS/XES, NRVS
   Peter Pinski           : DLPNO-MP2, DLPNO-MP2 Gradient
   Christoph Reimann      : Effective Core Potentials
   Marius Retegan         : Local ZFS, SOC
   Christoph Riplinger    : Optimizer, TS searches, QM/MM, DLPNO-CCSD(T), (RO)-DLPNO pert. Triples
   Tobias Risthaus        : Range-separated hybrids, TD-DFT gradient, RPA, STAB
   Michael Roemelt        : Original ROCIS implementation
   Masaaki Saitow         : Open-shell DLPNO-CCSD energy and density
   Barbara Sandhoefer     : DKH picture change effects
   Avijit Sen             : IP-ROCIS
   Kantharuban Sivalingam : CASSCF convergence, NEVPT2, FIC-MRCI
   Bernardo de Souza      : ESD, SOC TD-DFT
   Georgi Stoychev        : AutoAux, RI-MP2 NMR
   Willem Van den Heuvel  : Paramagnetic NMR
   Boris Wezisla          : Elementary symmetry handling
   Frank Wennmohs         : Technical directorship


 We gratefully acknowledge several colleagues who have allowed us to
 interface, adapt or use parts of their codes:
   Stefan Grimme, W. Hujo, H. Kruse,             : VdW corrections, initial TS optimization,
                  C. Bannwarth                     DFT functionals, gCP, sTDA/sTD-DF
   Ed Valeev, F. Pavosevic, A. Kumar             : LibInt (2-el integral package), F12 methods
   Garnet Chan, S. Sharma, J. Yang, R. Olivares  : DMRG
   Ulf Ekstrom                                   : XCFun DFT Library
   Mihaly Kallay                                 : mrcc  (arbitrary order and MRCC methods)
   Andreas Klamt, Michael Diedenhofen            : otool_cosmo (COSMO solvation model)
   Jiri Pittner, Ondrej Demel                    : Mk-CCSD
   Frank Weinhold                                : gennbo (NPA and NBO analysis)
   Christopher J. Cramer and Donald G. Truhlar   : smd solvation model
   Lars Goerigk                                  : TD-DFT with DH, B97 family of functionals
   V. Asgeirsson, H. Jonsson                     : NEB implementation
   FAccTs GmbH                                   : IRC, NEB, NEB-TS, Multilevel, MM, QM/MM, CI optimization
   S Lehtola, MJT Oliveira, MAL Marques          : LibXC Library


 Your calculation uses the libint2 library for the computation of 2-el integrals
 For citations please refer to: http://libint.valeyev.net

 Your ORCA version has been built with support for libXC version: 4.2.3
 For citations please refer to: https://tddft.org/programs/libxc/

 This ORCA versions uses:
   CBLAS   interface :  Fast vector & matrix operations
   LAPACKE interface :  Fast linear algebra routines
   SCALAPACK package :  Parallel linear algebra routines


----- Orbital basis set information -----
Your calculation utilizes the basis: def2-SVP
   F. Weigend and R. Ahlrichs, Phys. Chem. Chem. Phys. 7, 3297 (2005).

================================================================================
                                        WARNINGS
                       Please study these warnings very carefully!
================================================================================


WARNING: Geometry Optimization
  ===> : Switching off AutoStart
         For restart on a previous wavefunction, please use MOREAD

INFO   : the flag for use of LIBINT has been found!

================================================================================
                                       INPUT FILE
================================================================================
NAME = Uracil_1.inp
|  1> !B3LYP def2-SVP VERYTIGHTOPT FREQ CPCM(water)
|  2> %pal
|  3> nprocs 16
|  4> end
|  5> * xyz 1 1
|  6>    C        1.33878        0.51508       -0.01708
|  7>    C        1.24526       -0.81240        0.09268
|  8>    N       -0.02415       -1.41966        0.11620
|  9>    C       -1.17237       -0.61743        0.00888
| 10>    N       -1.05625        0.71979       -0.10636
| 11>    C        0.13881        1.36406       -0.11760
| 12>    O       -2.19305       -1.27075        0.03788
| 13>    O        0.23534        2.57757       -0.20466
| 14>    H        2.15069       -1.41636        0.16463
| 15>    H       -0.21763       -1.98249        0.95584
| 16>    H       -1.89431        1.28315       -0.17534
| 17>    H        2.29444        1.03083       -0.03758
| 18>    H       -0.17622       -2.13392       -0.60893
| 19> *
| 20> 
| 21>                          ****END OF INPUT****
================================================================================

                       *****************************
                       * Geometry Optimization Run *
                       *****************************

Geometry optimization settings:
Update method            Update   .... BFGS
Choice of coordinates    CoordSys .... Z-matrix Internals
Initial Hessian          InHess   .... Almoef's Model

Convergence Tolerances:
Energy Change            TolE     ....  2.0000e-07 Eh
Max. Gradient            TolMAXG  ....  3.0000e-05 Eh/bohr
RMS Gradient             TolRMSG  ....  8.0000e-06 Eh/bohr
Max. Displacement        TolMAXD  ....  2.0000e-04 bohr
RMS Displacement         TolRMSD  ....  1.0000e-04 bohr
Strict Convergence                ....  False
------------------------------------------------------------------------------
                        ORCA OPTIMIZATION COORDINATE SETUP
------------------------------------------------------------------------------

The optimization will be done in new redundant internal coordinates
Making redundant internal coordinates   ...  (new redundants) done
Evaluating the initial hessian          ...  (Almloef) done
Evaluating the coordinates              ...  done
Calculating the B-matrix                .... done
Calculating the G-matrix                .... done
Diagonalizing the G-matrix              .... done
The first mode is                       ....   29
The number of degrees of freedom        ....   33

    -----------------------------------------------------------------
                    Redundant Internal Coordinates


    -----------------------------------------------------------------
         Definition                    Initial Value    Approx d2E/dq
    -----------------------------------------------------------------
      1. B(C   1,C   0)                  1.3353         0.763883   
      2. B(N   2,C   1)                  1.4074         0.524984   
      3. B(C   3,N   2)                  1.4048         0.529959   
      4. B(N   4,C   3)                  1.3472         0.654901   
      5. B(C   5,N   4)                  1.3577         0.630073   
      6. B(C   5,C   0)                  1.4734         0.459979   
      7. B(O   6,C   3)                  1.2122         1.075292   
      8. B(O   7,C   5)                  1.2205         1.043225   
      9. B(H   8,C   1)                  1.0908         0.359102   
     10. B(H   9,N   2)                  1.0292         0.403272   
     11. B(H  10,N   4)                  1.0122         0.429281   
     12. B(H  11,C   0)                  1.0861         0.365240   
     13. B(H  12,N   2)                  1.0291         0.403344   
     14. A(C   5,C   0,H  11)          116.2123         0.336458   
     15. A(C   1,C   0,H  11)          122.3604         0.366563   
     16. A(C   1,C   0,C   5)          121.4273         0.427120   
     17. A(C   0,C   1,N   2)          119.5712         0.434522   
     18. A(C   0,C   1,H   8)          119.8515         0.365500   
     19. A(N   2,C   1,H   8)          120.5772         0.340907   
     20. A(C   3,N   2,H   9)          102.7657         0.345142   
     21. A(C   1,N   2,H   9)          114.7819         0.344595   
     22. A(C   3,N   2,H  12)          102.8110         0.345152   
     23. A(C   1,N   2,H  12)          114.8960         0.344606   
     24. A(C   1,N   2,C   3)          119.3104         0.404463   
     25. A(H   9,N   2,H  12)           99.6430         0.296540   
     26. A(N   2,C   3,O   6)          112.2474         0.460044   
     27. A(N   2,C   3,N   4)          120.1931         0.420653   
     28. A(N   4,C   3,O   6)          127.5593         0.478255   
     29. A(C   3,N   4,H  10)          119.1391         0.361541   
     30. A(C   3,N   4,C   5)          123.2019         0.433900   
     31. A(C   5,N   4,H  10)          117.6530         0.359167   
     32. A(C   0,C   5,N   4)          116.2877         0.410035   
     33. A(N   4,C   5,O   7)          122.8224         0.472229   
     34. A(C   0,C   5,O   7)          120.8900         0.448847   
     35. D(N   2,C   1,C   0,C   5)     -0.1322         0.041764   
     36. D(H   8,C   1,C   0,C   5)    179.9514         0.041764   
     37. D(H   8,C   1,C   0,H  11)     -0.0495         0.041764   
     38. D(N   2,C   1,C   0,H  11)    179.8668         0.041764   
     39. D(C   3,N   2,C   1,H   8)   -179.3957         0.023739   
     40. D(H   9,N   2,C   1,C   0)   -121.8797         0.023739   
     41. D(H  12,N   2,C   1,C   0)    123.4329         0.023739   
     42. D(C   3,N   2,C   1,C   0)      0.6885         0.023739   
     43. D(H   9,N   2,C   1,H   8)     58.0361         0.023739   
     44. D(H  12,N   2,C   1,H   8)    -56.6513         0.023739   
     45. D(O   6,C   3,N   2,C   1)    179.7146         0.024214   
     46. D(N   4,C   3,N   2,H   9)    127.8885         0.024214   
     47. D(N   4,C   3,N   2,C   1)     -0.4339         0.024214   
     48. D(O   6,C   3,N   2,H   9)    -51.9630         0.024214   
     49. D(N   4,C   3,N   2,H  12)   -128.9522         0.024214   
     50. D(O   6,C   3,N   2,H  12)     51.1963         0.024214   
     51. D(H  10,N   4,C   3,O   6)      0.3028         0.035048   
     52. D(H  10,N   4,C   3,N   2)   -179.5238         0.035048   
     53. D(C   5,N   4,C   3,O   6)    179.3964         0.035048   
     54. D(C   5,N   4,C   3,N   2)     -0.4302         0.035048   
     55. D(O   7,C   5,N   4,H  10)      0.0995         0.032229   
     56. D(C   0,C   5,N   4,H  10)   -179.9371         0.032229   
     57. D(C   0,C   5,N   4,C   3)      0.9566         0.032229   
     58. D(O   7,C   5,C   0,H  11)     -0.7082         0.014413   
     59. D(O   7,C   5,C   0,C   1)    179.2909         0.014413   
     60. D(O   7,C   5,N   4,C   3)   -179.0068         0.032229   
     61. D(N   4,C   5,C   0,H  11)    179.3277         0.014413   
     62. D(N   4,C   5,C   0,C   1)     -0.6732         0.014413   
    -----------------------------------------------------------------

Number of atoms                         .... 13
Number of degrees of freedom            .... 62

         *************************************************************
         *                GEOMETRY OPTIMIZATION CYCLE   1            *
         *************************************************************
---------------------------------
CARTESIAN COORDINATES (ANGSTROEM)
---------------------------------
  C      1.338780    0.515080   -0.017080
  C      1.245260   -0.812400    0.092680
  N     -0.024150   -1.419660    0.116200
  C     -1.172370   -0.617430    0.008880
  N     -1.056250    0.719790   -0.106360
  C      0.138810    1.364060   -0.117600
  O     -2.193050   -1.270750    0.037880
  O      0.235340    2.577570   -0.204660
  H      2.150690   -1.416360    0.164630
  H     -0.217630   -1.982490    0.955840
  H     -1.894310    1.283150   -0.175340
  H      2.294440    1.030830   -0.037580
  H     -0.176220   -2.133920   -0.608930

----------------------------
CARTESIAN COORDINATES (A.U.)
----------------------------
  NO LB      ZA    FRAG     MASS         X           Y           Z
   0 C     6.0000    0    12.011    2.529928    0.973360   -0.032277
   1 C     6.0000    0    12.011    2.353200   -1.535214    0.175140
   2 N     7.0000    0    14.007   -0.045637   -2.682769    0.219586
   3 C     6.0000    0    12.011   -2.215458   -1.166774    0.016781
   4 N     7.0000    0    14.007   -1.996023    1.360206   -0.200991
   5 C     6.0000    0    12.011    0.262313    2.577700   -0.222232
   6 O     8.0000    0    15.999   -4.144264   -2.401369    0.071583
   7 O     8.0000    0    15.999    0.444728    4.870901   -0.386751
   8 H     1.0000    0     1.008    4.064215   -2.676533    0.311106
   9 H     1.0000    0     1.008   -0.411261   -3.746363    1.806276
  10 H     1.0000    0     1.008   -3.579727    2.424802   -0.331345
  11 H     1.0000    0     1.008    4.335863    1.947986   -0.071016
  12 H     1.0000    0     1.008   -0.333008   -4.032524   -1.150711

--------------------------------
INTERNAL COORDINATES (ANGSTROEM)
--------------------------------
 C      0   0   0     0.000000000000     0.00000000     0.00000000
 C      1   0   0     1.335288882003     0.00000000     0.00000000
 N      2   1   0     1.407380419823   119.57115907     0.00000000
 C      3   2   1     1.404813056495   119.31044904     0.68851628
 N      4   3   2     1.347190202013   120.19312262   359.56613162
 C      5   4   3     1.357710784409   123.20192506   359.56982096
 O      4   3   2     1.212211072710   112.24738041   179.71462617
 O      6   5   4     1.220452377031   122.82236896   180.99322907
 H      2   1   3     1.090755687127   119.85153982   180.08361692
 H      3   2   1     1.029178045287   114.78190191   238.12029294
 H      5   4   3     1.012164657356   119.13913307   180.47615880
 H      1   2   3     1.086141955777   122.36044792   179.86684319
 H      3   2   1     1.029128830322   114.89596939   123.43288883

---------------------------
INTERNAL COORDINATES (A.U.)
---------------------------
 C      0   0   0     0.000000000000     0.00000000     0.00000000
 C      1   0   0     2.523330296655     0.00000000     0.00000000
 N      2   1   0     2.659563559708   119.57115907     0.00000000
 C      3   2   1     2.654711946133   119.31044904     0.68851628
 N      4   3   2     2.545820532107   120.19312262   359.56613162
 C      5   4   3     2.565701551604   123.20192506   359.56982096
 O      4   3   2     2.290746943928   112.24738041   179.71462617
 O      6   5   4     2.306320752081   122.82236896   180.99322907
 H      2   1   3     2.061229527687   119.85153982   180.08361692
 H      3   2   1     1.944864648636   114.78190191   238.12029294
 H      5   4   3     1.912714004837   119.13913307   180.47615880
 H      1   2   3     2.052510838981   122.36044792   179.86684319
 H      3   2   1     1.944771645831   114.89596939   123.43288883

---------------------
BASIS SET INFORMATION
---------------------
There are 4 groups of distinct atoms

 Group   1 Type C   : 7s4p1d contracted to 3s2p1d pattern {511/31/1}
 Group   2 Type N   : 7s4p1d contracted to 3s2p1d pattern {511/31/1}
 Group   3 Type O   : 7s4p1d contracted to 3s2p1d pattern {511/31/1}
 Group   4 Type H   : 4s1p contracted to 2s1p pattern {31/1}

Atom   0C    basis set group =>   1
Atom   1C    basis set group =>   1
Atom   2N    basis set group =>   2
Atom   3C    basis set group =>   1
Atom   4N    basis set group =>   2
Atom   5C    basis set group =>   1
Atom   6O    basis set group =>   3
Atom   7O    basis set group =>   3
Atom   8H    basis set group =>   4
Atom   9H    basis set group =>   4
Atom  10H    basis set group =>   4
Atom  11H    basis set group =>   4
Atom  12H    basis set group =>   4


           ************************************************************
           *        Program running with 16 parallel MPI-processes    *
           *              working on a common directory               *
           ************************************************************
------------------------------------------------------------------------------
                           ORCA GTO INTEGRAL CALCULATION
------------------------------------------------------------------------------

                         BASIS SET STATISTICS AND STARTUP INFO

 # of primitive gaussian shells          ...  121
 # of primitive gaussian functions       ...  227
 # of contracted shells                  ...   63
 # of contracted basis functions         ...  137
 Highest angular momentum                ...    2
 Maximum contraction depth               ...    5
 Integral package used                   ... LIBINT
 Integral threshhold            Thresh   ...  1.000e-13
 Primitive cut-off              TCut     ...  1.000e-14


------------------------------ INTEGRAL EVALUATION ----------------------------


 * One electron integrals 
 Pre-screening matrix                    ... done
 Shell pair data                         ... done (   0.001 sec)



           ************************************************************
           *        Program running with 16 parallel MPI-processes    *
           *              working on a common directory               *
           ************************************************************
-------------------------------------------------------------------------------
                                 ORCA SCF
-------------------------------------------------------------------------------

------------
SCF SETTINGS
------------
Hamiltonian:
 Density Functional     Method          .... DFT(GTOs)
 Exchange Functional    Exchange        .... B88
   X-Alpha parameter    XAlpha          ....  0.666667
   Becke's b parameter  XBeta           ....  0.004200
 Correlation Functional Correlation     .... LYP
 LDA part of GGA corr.  LDAOpt          .... VWN-5
 Gradients option       PostSCFGGA      .... off
 Hybrid DFT is turned on
   Fraction HF Exchange ScalHFX         ....  0.200000
   Scaling of DF-GGA-X  ScalDFX         ....  0.720000
   Scaling of DF-GGA-C  ScalDFC         ....  0.810000
   Scaling of DF-LDA-C  ScalLDAC        ....  1.000000
   Perturbative correction              ....  0.000000
   Density functional embedding theory  .... OFF
   NL short-range parameter             ....  4.800000


General Settings:
 Integral files         IntName         .... Uracil_1
 Hartree-Fock type      HFTyp           .... RHF
 Total Charge           Charge          ....    1
 Multiplicity           Mult            ....    1
 Number of Electrons    NEL             ....   58
 Basis Dimension        Dim             ....  137
 Nuclear Repulsion      ENuc            ....    372.4078870936 Eh

Convergence Acceleration:
 DIIS                   CNVDIIS         .... on
   Start iteration      DIISMaxIt       ....    12
   Startup error        DIISStart       ....  0.200000
   # of expansion vecs  DIISMaxEq       ....     5
   Bias factor          DIISBfac        ....   1.050
   Max. coefficient     DIISMaxC        ....  10.000
 Newton-Raphson         CNVNR           .... off
 SOSCF                  CNVSOSCF        .... on
   Start iteration      SOSCFMaxIt      ....   150
   Startup grad/error   SOSCFStart      ....  0.003300
 Level Shifting         CNVShift        .... on
   Level shift para.    LevelShift      ....    0.2500
   Turn off err/grad.   ShiftErr        ....    0.0010
 Zerner damping         CNVZerner       .... off
 Static damping         CNVDamp         .... on
   Fraction old density DampFac         ....    0.7000
   Max. Damping (<1)    DampMax         ....    0.9800
   Min. Damping (>=0)   DampMin         ....    0.0000
   Turn off err/grad.   DampErr         ....    0.1000
 Fernandez-Rico         CNVRico         .... off

SCF Procedure:
 Maximum # iterations   MaxIter         ....   125
 SCF integral mode      SCFMode         .... Direct
   Integral package                     .... LIBINT
 Reset frequency        DirectResetFreq ....    20
 Integral Threshold     Thresh          ....  1.000e-13 Eh
 Primitive CutOff       TCut            ....  1.000e-14 Eh

Convergence Tolerance:
 Convergence Check Mode ConvCheckMode   .... Total+1el-Energy
 Convergence forced     ConvForced      .... 0
 Energy Change          TolE            ....  1.000e-10 Eh
 1-El. energy change                    ....  1.000e-07 Eh
 Orbital Gradient       TolG            ....  1.000e-06
 Orbital Rotation angle TolX            ....  1.000e-06
 DIIS Error             TolErr          ....  1.000e-10


Diagonalization of the overlap matrix:
Smallest eigenvalue                        ... 1.246e-03
Time for diagonalization                   ...    0.004 sec
Threshold for overlap eigenvalues          ... 1.000e-08
Number of eigenvalues below threshold      ... 0
Time for construction of square roots      ...    0.002 sec
Total time needed                          ...    0.007 sec

-------------------
DFT GRID GENERATION
-------------------

General Integration Accuracy     IntAcc      ...  4.340
Radial Grid Type                 RadialGrid  ... Gauss-Chebyshev
Angular Grid (max. acc.)         AngularGrid ... Lebedev-110
Angular grid pruning method      GridPruning ... 3 (G Style)
Weight generation scheme         WeightScheme... Becke
Basis function cutoff            BFCut       ...    3.0000e-14
Integration weight cutoff        WCut        ...    1.0000e-14
Grids for H and He will be reduced by one unit

# of grid points (after initial pruning)     ...  17430 (   0.0 sec)
# of grid points (after weights+screening)   ...  16314 (   0.0 sec)
nearest neighbour list constructed           ...    0.0 sec
Grid point re-assignment to atoms done       ...    0.0 sec
Grid point division into batches done        ...    0.0 sec
Reduced shell lists constructed in    0.0 sec

Total number of grid points                  ...    16314
Total number of batches                      ...      260
Average number of points per batch           ...       62
Average number of grid points per atom       ...     1255
Average number of shells per batch           ...    52.33 (83.07%)
Average number of basis functions per batch  ...   117.56 (85.81%)
Average number of large shells per batch     ...    47.83 (91.40%)
Average number of large basis fcns per batch ...   106.06 (90.22%)
Maximum spatial batch extension              ...   3.73,  3.66, 10.90 au
Average spatial batch extension              ...   0.12,  0.12,  0.17 au

Time for grid setup =    0.051 sec

------------------------------
INITIAL GUESS: MODEL POTENTIAL
------------------------------
Loading Hartree-Fock densities                     ... done
Calculating cut-offs                               ... done
Setting up the integral package                    ... done
Initializing the effective Hamiltonian             ... done
Starting the Coulomb interaction                   ... done (   0.0 sec)
Reading the grid                                   ... done
Mapping shells                                     ... done
Starting the XC term evaluation                    ... done (   0.0 sec)
  promolecular density results
     # of electrons  =     58.994365754
     EX              =    -51.705306384
     EC              =     -2.062314485
     EX+EC           =    -53.767620869
Transforming the Hamiltonian                       ... done (   0.0 sec)
Diagonalizing the Hamiltonian                      ... done (   0.0 sec)
Back transforming the eigenvectors                 ... done (   0.0 sec)
Now organizing SCF variables                       ... done
                      ------------------
                      INITIAL GUESS DONE (   0.2 sec)
                      ------------------

--------------------
CPCM SOLVATION MODEL
--------------------
CPCM parameters:
  Epsilon                                         ...      80.4000
  Refrac                                          ...       1.3300
  Rsolv                                           ...       1.3000
  Surface type                                    ...    GEPOL SES
  Epsilon function type                           ...         CPCM
Radii:
 Radius for C  used is    3.7795 Bohr (=   2.0000 Ang.)
 Radius for N  used is    3.4582 Bohr (=   1.8300 Ang.)
 Radius for O  used is    3.2503 Bohr (=   1.7200 Ang.)
 Radius for H  used is    2.4566 Bohr (=   1.3000 Ang.)
Calculating surface                               ...        done! (  0.0s)
GEPOL surface points                              ...          403
GEPOL Volume                                      ...     809.5035
GEPOL Surface-area                                ...     483.5190
Calculating surface distance matrix               ...        done! (  0.0s)
Performing Cholesky decomposition & store         ...        done! (  0.0s)
Overall time for CPCM initialization              ...                 0.0s
--------------
SCF ITERATIONS
--------------
ITER       Energy         Delta-E        Max-DP      RMS-DP      [F,P]     Damp
               ***  Starting incremental Fock matrix formation  ***
  0   -414.4477870212   0.000000000000 0.13741682  0.00383008  0.2683248 0.7000
  1   -414.5712659953  -0.123478974015 0.08227453  0.00230067  0.1021198 0.7000
                               ***Turning on DIIS***
  2   -414.6092393938  -0.037973398522 0.06883873  0.00284530  0.0397062 0.0000
  3   -414.6836368620  -0.074397468173 0.06586662  0.00167631  0.0574323 0.0000
  4   -414.6943948059  -0.010757943995 0.01201746  0.00041161  0.0167728 0.0000
                      *** Initiating the SOSCF procedure ***
                           *** Shutting down DIIS ***
                      *** Re-Reading the Fockian *** 
                      *** Removing any level shift *** 
ITER      Energy       Delta-E        Grad      Rot      Max-DP    RMS-DP
  5   -414.69579341  -0.0013986016  0.000703  0.000703  0.003559  0.000114
               *** Restarting incremental Fock matrix formation ***
  6   -414.69583295  -0.0000395472  0.000696  0.001994  0.003534  0.000091
  7   -414.69581589   0.0000170632  0.001107  0.001337  0.002085  0.000056
  8   -414.69584285  -0.0000269560  0.000130  0.000433  0.000541  0.000019
  9   -414.69584226   0.0000005868  0.000193  0.000324  0.000405  0.000011
 10   -414.69584319  -0.0000009326  0.000017  0.000056  0.000077  0.000003
 11   -414.69584318   0.0000000093  0.000020  0.000031  0.000048  0.000001
 12   -414.69584320  -0.0000000181  0.000003  0.000005  0.000011  0.000000
 13   -414.69584320   0.0000000002  0.000003  0.000004  0.000007  0.000000
 14   -414.69584320  -0.0000000004  0.000001  0.000001  0.000003  0.000000
 15   -414.69584320   0.0000000000  0.000001  0.000001  0.000002  0.000000
                  ***Gradient check signals convergence***
              ***Rediagonalizing the Fockian in SOSCF/NRSCF***

               *****************************************************
               *                     SUCCESS                       *
               *           SCF CONVERGED AFTER  16 CYCLES          *
               *****************************************************

Setting up the final grid:

General Integration Accuracy     IntAcc      ...  4.670
Radial Grid Type                 RadialGrid  ... Gauss-Chebyshev
Angular Grid (max. acc.)         AngularGrid ... Lebedev-302
Angular grid pruning method      GridPruning ... 3 (G Style)
Weight generation scheme         WeightScheme... Becke
Basis function cutoff            BFCut       ...    3.0000e-14
Integration weight cutoff        WCut        ...    1.0000e-14
Grids for H and He will be reduced by one unit

# of grid points (after initial pruning)     ...  66666 (   0.0 sec)
# of grid points (after weights+screening)   ...  61566 (   0.0 sec)
nearest neighbour list constructed           ...    0.0 sec
Grid point re-assignment to atoms done       ...    0.0 sec
Grid point division into batches done        ...    0.3 sec
Reduced shell lists constructed in    0.3 sec

Total number of grid points                  ...    61566
Total number of batches                      ...      969
Average number of points per batch           ...       63
Average number of grid points per atom       ...     4736
Average number of shells per batch           ...    53.23 (84.49%)
Average number of basis functions per batch  ...   118.90 (86.79%)
Average number of large shells per batch     ...    46.39 (87.15%)
Average number of large basis fcns per batch ...   100.03 (84.13%)
Maximum spatial batch extension              ...   3.08,  3.37,  9.15 au
Average spatial batch extension              ...   0.08,  0.08,  0.09 au

Final grid set up in    0.4 sec
Final integration                            ... done (   0.1 sec)
Change in XC energy                          ...    -0.000400316
Integrated number of electrons               ...    57.999978318
Previous integrated no of electrons          ...    57.996634031

----------------
TOTAL SCF ENERGY
----------------

Total Energy       :         -414.69624352 Eh          -11284.45848 eV

Components:
Nuclear Repulsion  :          372.40788709 Eh           10133.73380 eV
Electronic Energy  :         -787.10413061 Eh          -21418.19227 eV
One Electron Energy:        -1288.98768599 Eh          -35075.13812 eV
Two Electron Energy:          501.88355538 Eh           13656.94585 eV
CPCM Dielectric    :           -0.13757963 Eh              -3.74373 eV

Virial components:
Potential Energy   :         -826.08713488 Eh          -22478.97375 eV
Kinetic Energy     :          411.39089136 Eh           11194.51527 eV
Virial Ratio       :            2.00803458


DFT components:
N(Alpha)           :       28.999989159103 electrons
N(Beta)            :       28.999989159103 electrons
N(Total)           :       57.999978318207 electrons
E(X)               :      -41.344851757342 Eh       
E(C)               :       -2.391657357011 Eh       
E(XC)              :      -43.736509114353 Eh       
DFET-embed. en.    :        0.000000000000 Eh       
CPCM Solvation Model Properties:
Surface-charge          :           -1.01182133
Charge-correction       :            0.00185308 Eh               0.05042 eV
Free-energy (cav+disp)  :            0.00356462 Eh               0.09700 eV
Corrected G(solv)       :         -414.69082582 Eh          -11284.31105 eV

---------------
SCF CONVERGENCE
---------------

  Last Energy change         ...   -2.8194e-11  Tolerance :   1.0000e-10
  Last MAX-Density change    ...    4.7792e-07  Tolerance :   1.0000e-05
  Last RMS-Density change    ...    1.1984e-08  Tolerance :   1.0000e-06
  Last Orbital Gradient      ...    1.3096e-07  Tolerance :   1.0000e-06
  Last Orbital Rotation      ...    1.7254e-07  Tolerance :   1.0000e-06

             **** THE GBW FILE WAS UPDATED (Uracil_1.gbw) ****
             **** DENSITY FILE WAS UPDATED (Uracil_1.scfp) ****
             **** ENERGY FILE WAS UPDATED (Uracil_1.en.tmp) ****
             **** THE GBW FILE WAS UPDATED (Uracil_1.gbw) ****
             **** DENSITY FILE WAS UPDATED (Uracil_1.scfp) ****
----------------
ORBITAL ENERGIES
----------------

  NO   OCC          E(Eh)            E(eV) 
   0   2.0000     -19.168682      -521.6064 
   1   2.0000     -19.151743      -521.1454 
   2   2.0000     -14.498795      -394.5323 
   3   2.0000     -14.425513      -392.5382 
   4   2.0000     -10.390247      -282.7330 
   5   2.0000     -10.340048      -281.3670 
   6   2.0000     -10.286398      -279.9071 
   7   2.0000     -10.241736      -278.6918 
   8   2.0000      -1.143998       -31.1298 
   9   2.0000      -1.077541       -29.3214 
  10   2.0000      -1.042087       -28.3566 
  11   2.0000      -0.988592       -26.9010 
  12   2.0000      -0.833682       -22.6856 
  13   2.0000      -0.732301       -19.9269 
  14   2.0000      -0.719601       -19.5813 
  15   2.0000      -0.646350       -17.5881 
  16   2.0000      -0.637978       -17.3603 
  17   2.0000      -0.615143       -16.7389 
  18   2.0000      -0.562503       -15.3065 
  19   2.0000      -0.505806       -13.7637 
  20   2.0000      -0.491632       -13.3780 
  21   2.0000      -0.488077       -13.2812 
  22   2.0000      -0.461565       -12.5598 
  23   2.0000      -0.448934       -12.2161 
  24   2.0000      -0.435041       -11.8381 
  25   2.0000      -0.340967        -9.2782 
  26   2.0000      -0.331702        -9.0261 
  27   2.0000      -0.326808        -8.8929 
  28   2.0000      -0.306026        -8.3274 
  29   0.0000      -0.096243        -2.6189 
  30   0.0000      -0.049114        -1.3365 
  31   0.0000       0.028043         0.7631 
  32   0.0000       0.052647         1.4326 
  33   0.0000       0.076464         2.0807 
  34   0.0000       0.081024         2.2048 
  35   0.0000       0.098040         2.6678 
  36   0.0000       0.123230         3.3532 
  37   0.0000       0.153312         4.1718 
  38   0.0000       0.172105         4.6832 
  39   0.0000       0.191618         5.2142 
  40   0.0000       0.217737         5.9249 
  41   0.0000       0.250529         6.8173 
  42   0.0000       0.277538         7.5522 
  43   0.0000       0.308312         8.3896 
  44   0.0000       0.373956        10.1758 
  45   0.0000       0.387532        10.5453 
  46   0.0000       0.395684        10.7671 
  47   0.0000       0.397966        10.8292 
  48   0.0000       0.474684        12.9168 
  49   0.0000       0.480757        13.0820 
  50   0.0000       0.497961        13.5502 
  51   0.0000       0.501557        13.6481 
  52   0.0000       0.507563        13.8115 
  53   0.0000       0.554177        15.0799 
  54   0.0000       0.560273        15.2458 
  55   0.0000       0.582489        15.8503 
  56   0.0000       0.582684        15.8556 
  57   0.0000       0.596087        16.2204 
  58   0.0000       0.620467        16.8838 
  59   0.0000       0.649307        17.6685 
  60   0.0000       0.680319        18.5124 
  61   0.0000       0.706891        19.2355 
  62   0.0000       0.718995        19.5649 
  63   0.0000       0.758945        20.6519 
  64   0.0000       0.765730        20.8366 
  65   0.0000       0.774010        21.0619 
  66   0.0000       0.810002        22.0413 
  67   0.0000       0.825372        22.4595 
  68   0.0000       0.861646        23.4466 
  69   0.0000       0.963439        26.2165 
  70   0.0000       0.980813        26.6893 
  71   0.0000       1.012513        27.5519 
  72   0.0000       1.039187        28.2777 
  73   0.0000       1.054458        28.6933 
  74   0.0000       1.066709        29.0266 
  75   0.0000       1.093253        29.7489 
  76   0.0000       1.125016        30.6132 
  77   0.0000       1.152877        31.3714 
  78   0.0000       1.193409        32.4743 
  79   0.0000       1.252540        34.0833 
  80   0.0000       1.253028        34.0966 
  81   0.0000       1.277685        34.7676 
  82   0.0000       1.328538        36.1514 
  83   0.0000       1.360374        37.0177 
  84   0.0000       1.455864        39.6161 
  85   0.0000       1.498490        40.7760 
  86   0.0000       1.512479        41.1567 
  87   0.0000       1.530845        41.6564 
  88   0.0000       1.547224        42.1021 
  89   0.0000       1.590175        43.2709 
  90   0.0000       1.654556        45.0227 
  91   0.0000       1.688060        45.9344 
  92   0.0000       1.716576        46.7104 
  93   0.0000       1.729374        47.0587 
  94   0.0000       1.783930        48.5432 
  95   0.0000       1.816692        49.4347 
  96   0.0000       1.817671        49.4613 
  97   0.0000       1.870839        50.9081 
  98   0.0000       1.912434        52.0400 
  99   0.0000       1.943159        52.8761 
 100   0.0000       1.992053        54.2065 
 101   0.0000       1.993659        54.2502 
 102   0.0000       2.028789        55.2062 
 103   0.0000       2.056068        55.9485 
 104   0.0000       2.059869        56.0519 
 105   0.0000       2.124364        57.8069 
 106   0.0000       2.139137        58.2089 
 107   0.0000       2.221257        60.4435 
 108   0.0000       2.238778        60.9203 
 109   0.0000       2.281795        62.0908 
 110   0.0000       2.365494        64.3684 
 111   0.0000       2.409740        65.5724 
 112   0.0000       2.459699        66.9318 
 113   0.0000       2.468055        67.1592 
 114   0.0000       2.479724        67.4767 
 115   0.0000       2.566287        69.8322 
 116   0.0000       2.593169        70.5637 
 117   0.0000       2.598403        70.7061 
 118   0.0000       2.665965        72.5446 
 119   0.0000       2.673500        72.7496 
 120   0.0000       2.686093        73.0923 
 121   0.0000       2.708726        73.7082 
 122   0.0000       2.741172        74.5911 
 123   0.0000       2.855628        77.7056 
 124   0.0000       2.899674        78.9041 
 125   0.0000       2.925065        79.5951 
 126   0.0000       2.994409        81.4820 
 127   0.0000       3.091173        84.1151 
 128   0.0000       3.106381        84.5289 
 129   0.0000       3.132940        85.2516 
 130   0.0000       3.192697        86.8777 
 131   0.0000       3.269747        88.9743 
 132   0.0000       3.364711        91.5584 
 133   0.0000       3.450181        93.8842 
 134   0.0000       3.535737        96.2123 
 135   0.0000       3.619260        98.4851 
 136   0.0000       3.735105       101.6374 

                    ********************************
                    * MULLIKEN POPULATION ANALYSIS *
                    ********************************

-----------------------
MULLIKEN ATOMIC CHARGES
-----------------------
   0 C :   -0.065202
   1 C :    0.162537
   2 N :    0.050705
   3 C :    0.187788
   4 N :   -0.010473
   5 C :    0.174602
   6 O :   -0.209506
   7 O :   -0.220890
   8 H :    0.105832
   9 H :    0.270362
  10 H :    0.209782
  11 H :    0.073970
  12 H :    0.270491
Sum of atomic charges:    1.0000000

--------------------------------
MULLIKEN REDUCED ORBITAL CHARGES
--------------------------------
  0 C s       :     3.252849  s :     3.252849
      pz      :     0.946208  p :     2.781456
      px      :     0.957083
      py      :     0.878165
      dz2     :     0.002795  d :     0.030897
      dxz     :     0.001902
      dyz     :     0.006389
      dx2y2   :     0.009073
      dxy     :     0.010738
  1 C s       :     3.070470  s :     3.070470
      pz      :     0.987989  p :     2.720327
      px      :     0.767641
      py      :     0.964697
      dz2     :     0.003951  d :     0.046666
      dxz     :     0.004093
      dyz     :     0.007444
      dx2y2   :     0.013653
      dxy     :     0.017525
  2 N s       :     3.277588  s :     3.277588
      pz      :     1.271650  p :     3.646002
      px      :     1.142837
      py      :     1.231516
      dz2     :     0.003335  d :     0.025704
      dxz     :     0.005107
      dyz     :     0.005066
      dx2y2   :     0.005065
      dxy     :     0.007130
  3 C s       :     2.988266  s :     2.988266
      pz      :     0.862214  p :     2.686434
      px      :     0.881362
      py      :     0.942858
      dz2     :     0.007738  d :     0.137513
      dxz     :     0.017805
      dyz     :     0.022999
      dx2y2   :     0.048012
      dxy     :     0.040959
  4 N s       :     3.318431  s :     3.318431
      pz      :     1.551155  p :     3.672176
      px      :     1.102254
      py      :     1.018767
      dz2     :     0.002248  d :     0.019866
      dxz     :     0.001981
      dyz     :     0.003157
      dx2y2   :     0.007191
      dxy     :     0.005289
  5 C s       :     2.993239  s :     2.993239
      pz      :     0.821055  p :     2.714923
      px      :     0.976396
      py      :     0.917472
      dz2     :     0.006702  d :     0.117236
      dxz     :     0.010588
      dyz     :     0.022706
      dx2y2   :     0.026399
      dxy     :     0.050841
  6 O s       :     3.733875  s :     3.733875
      pz      :     1.400410  p :     4.456822
      px      :     1.451640
      py      :     1.604772
      dz2     :     0.002170  d :     0.018808
      dxz     :     0.004413
      dyz     :     0.001687
      dx2y2   :     0.004346
      dxy     :     0.006192
  7 O s       :     3.723262  s :     3.723262
      pz      :     1.367201  p :     4.480036
      px      :     1.783932
      py      :     1.328904
      dz2     :     0.002039  d :     0.017591
      dxz     :     0.000083
      dyz     :     0.005556
      dx2y2   :     0.006152
      dxy     :     0.003761
  8 H s       :     0.870198  s :     0.870198
      pz      :     0.004195  p :     0.023970
      px      :     0.012807
      py      :     0.006968
  9 H s       :     0.682892  s :     0.682892
      pz      :     0.024559  p :     0.046746
      px      :     0.007471
      py      :     0.014716
 10 H s       :     0.746793  s :     0.746793
      pz      :     0.008516  p :     0.043425
      px      :     0.021750
      py      :     0.013159
 11 H s       :     0.902189  s :     0.902189
      pz      :     0.003793  p :     0.023840
      px      :     0.013758
      py      :     0.006290
 12 H s       :     0.682764  s :     0.682764
      pz      :     0.020591  p :     0.046745
      px      :     0.007145
      py      :     0.019009


                     *******************************
                     * LOEWDIN POPULATION ANALYSIS *
                     *******************************

----------------------
LOEWDIN ATOMIC CHARGES
----------------------
   0 C :   -0.008013
   1 C :    0.085734
   2 N :    0.284919
   3 C :    0.127987
   4 N :    0.083288
   5 C :    0.089420
   6 O :   -0.169128
   7 O :   -0.182805
   8 H :    0.078210
   9 H :    0.194947
  10 H :    0.145079
  11 H :    0.075724
  12 H :    0.194638

-------------------------------
LOEWDIN REDUCED ORBITAL CHARGES
-------------------------------
  0 C s       :     2.881907  s :     2.881907
      pz      :     0.935954  p :     3.041709
      px      :     1.044819
      py      :     1.060936
      dz2     :     0.007366  d :     0.084397
      dxz     :     0.003487
      dyz     :     0.012718
      dx2y2   :     0.027554
      dxy     :     0.033272
  1 C s       :     2.852412  s :     2.852412
      pz      :     0.959454  p :     2.949780
      px      :     0.916822
      py      :     1.073505
      dz2     :     0.008970  d :     0.112074
      dxz     :     0.007340
      dyz     :     0.013868
      dx2y2   :     0.036816
      dxy     :     0.045080
  2 N s       :     2.993127  s :     2.993127
      pz      :     1.246877  p :     3.656775
      px      :     1.197720
      py      :     1.212177
      dz2     :     0.009447  d :     0.065180
      dxz     :     0.009603
      dyz     :     0.013738
      dx2y2   :     0.013669
      dxy     :     0.018724
  3 C s       :     2.792912  s :     2.792912
      pz      :     0.848026  p :     2.779006
      px      :     0.956788
      py      :     0.974192
      dz2     :     0.017178  d :     0.300095
      dxz     :     0.033379
      dyz     :     0.042596
      dx2y2   :     0.109645
      dxy     :     0.097298
  4 N s       :     3.037566  s :     3.037566
      pz      :     1.482951  p :     3.822780
      px      :     1.186821
      py      :     1.153008
      dz2     :     0.005551  d :     0.056367
      dxz     :     0.003711
      dyz     :     0.006308
      dx2y2   :     0.021877
      dxy     :     0.018920
  5 C s       :     2.825054  s :     2.825054
      pz      :     0.817950  p :     2.819471
      px      :     0.986885
      py      :     1.014635
      dz2     :     0.015593  d :     0.266056
      dxz     :     0.021463
      dyz     :     0.042713
      dx2y2   :     0.064452
      dxy     :     0.121834
  6 O s       :     3.543701  s :     3.543701
      pz      :     1.397925  p :     4.593463
      px      :     1.541268
      py      :     1.654270
      dz2     :     0.004578  d :     0.031964
      dxz     :     0.005411
      dyz     :     0.002205
      dx2y2   :     0.007236
      dxy     :     0.012534
  7 O s       :     3.548646  s :     3.548646
      pz      :     1.364381  p :     4.604177
      px      :     1.787157
      py      :     1.452640
      dz2     :     0.004241  d :     0.029982
      dxz     :     0.000110
      dyz     :     0.006872
      dx2y2   :     0.012746
      dxy     :     0.006012
  8 H s       :     0.848373  s :     0.848373
      pz      :     0.013898  p :     0.073416
      px      :     0.039371
      py      :     0.020147
  9 H s       :     0.689587  s :     0.689587
      pz      :     0.057144  p :     0.115466
      px      :     0.019673
      py      :     0.038649
 10 H s       :     0.731768  s :     0.731768
      pz      :     0.031428  p :     0.123153
      px      :     0.058083
      py      :     0.033642
 11 H s       :     0.853324  s :     0.853324
      pz      :     0.012726  p :     0.070952
      px      :     0.040636
      py      :     0.017590
 12 H s       :     0.689882  s :     0.689882
      pz      :     0.047236  p :     0.115481
      px      :     0.018709
      py      :     0.049536


                      *****************************
                      * MAYER POPULATION ANALYSIS *
                      *****************************

  NA   - Mulliken gross atomic population
  ZA   - Total nuclear charge
  QA   - Mulliken gross atomic charge
  VA   - Mayer's total valence
  BVA  - Mayer's bonded valence
  FA   - Mayer's free valence

  ATOM       NA         ZA         QA         VA         BVA        FA
  0 C      6.0652     6.0000    -0.0652     3.8852     3.8852     0.0000
  1 C      5.8375     6.0000     0.1625     3.8225     3.8225    -0.0000
  2 N      6.9493     7.0000     0.0507     3.5952     3.5952    -0.0000
  3 C      5.8122     6.0000     0.1878     4.3935     4.3935     0.0000
  4 N      7.0105     7.0000    -0.0105     3.2642     3.2642     0.0000
  5 C      5.8254     6.0000     0.1746     4.3140     4.3140    -0.0000
  6 O      8.2095     8.0000    -0.2095     2.3048     2.3048    -0.0000
  7 O      8.2209     8.0000    -0.2209     2.2806     2.2806    -0.0000
  8 H      0.8942     1.0000     0.1058     0.9853     0.9853    -0.0000
  9 H      0.7296     1.0000     0.2704     0.9387     0.9387     0.0000
 10 H      0.7902     1.0000     0.2098     0.9887     0.9887     0.0000
 11 H      0.9260     1.0000     0.0740     1.0036     1.0036     0.0000
 12 H      0.7295     1.0000     0.2705     0.9388     0.9388    -0.0000

  Mayer bond orders larger than 0.100000
B(  0-C ,  1-C ) :   1.8300 B(  0-C ,  5-C ) :   1.0066 B(  0-C , 11-H ) :   0.9699 
B(  1-C ,  2-N ) :   0.9452 B(  1-C ,  8-H ) :   0.9523 B(  2-N ,  3-C ) :   0.9122 
B(  2-N ,  9-H ) :   0.8638 B(  2-N , 12-H ) :   0.8636 B(  3-C ,  4-N ) :   1.2121 
B(  3-C ,  6-O ) :   2.1562 B(  4-N ,  5-C ) :   1.0917 B(  4-N , 10-H ) :   0.8725 
B(  5-C ,  7-O ) :   2.1134 

-------
TIMINGS
-------

Total SCF time: 0 days 0 hours 0 min 11 sec 

Total time                  ....      11.667 sec
Sum of individual times     ....      11.300 sec  ( 96.9%)

Fock matrix formation       ....      10.614 sec  ( 91.0%)
  XC integration            ....       0.478 sec  (  4.5% of F)
    Basis function eval.    ....       0.103 sec  ( 21.5% of XC)
    Density eval.           ....       0.074 sec  ( 15.5% of XC)
    XC-Functional eval.     ....       0.023 sec  (  4.8% of XC)
    XC-Potential eval.      ....       0.122 sec  ( 25.5% of XC)
Diagonalization             ....       0.026 sec  (  0.2%)
Density matrix formation    ....       0.013 sec  (  0.1%)
Population analysis         ....       0.004 sec  (  0.0%)
Initial guess               ....       0.162 sec  (  1.4%)
Orbital Transformation      ....       0.000 sec  (  0.0%)
Orbital Orthonormalization  ....       0.000 sec  (  0.0%)
DIIS solution               ....       0.008 sec  (  0.1%)
SOSCF solution              ....       0.030 sec  (  0.3%)
Grid generation             ....       0.442 sec  (  3.8%)

-------------------------   --------------------
FINAL SINGLE POINT ENERGY      -414.696243518399
-------------------------   --------------------



           ************************************************************
           *        Program running with 16 parallel MPI-processes    *
           *              working on a common directory               *
           ************************************************************
------------------------------------------------------------------------------
                         ORCA SCF GRADIENT CALCULATION
------------------------------------------------------------------------------

Gradient of the Kohn-Sham DFT energy:
Kohn-Sham wavefunction type      ... RKS
Hartree-Fock exchange scaling    ...    0.200
Number of operators              ...    1
Number of atoms                  ...   13
Basis set dimensions             ...  137
Integral neglect threshold       ... 1.0e-13
Integral primitive cutoff        ... 1.0e-14

Nuclear repulsion gradient       ... done
One Electron Gradient            ... done
Pre-screening matrix             ... done
Starting the two electron gradient:
Two electron gradient done
Exchange-correlation gradient    ... done

------------------
CARTESIAN GRADIENT
------------------

   1   C   :    0.006703792    0.009011011   -0.000300446
   2   C   :   -0.043572245   -0.023916386    0.000952960
   3   N   :   -0.020402948    0.027166245   -0.003225282
   4   C   :    0.079859088    0.000118843    0.002456635
   5   N   :    0.005163461    0.015525229   -0.001309106
   6   C   :   -0.036097271   -0.035802036    0.001329778
   7   O   :    0.004446537   -0.019134943    0.001976657
   8   O   :    0.008200160    0.007591243   -0.000090128
   9   H   :    0.006713199    0.009318997   -0.000760668
  10   H   :   -0.008703950    0.004674964   -0.010194541
  11   H   :    0.009827824   -0.001521917    0.000602489
  12   H   :   -0.002860150    0.000387877   -0.000136493
  13   H   :   -0.009277497    0.006580872    0.008698146

Difference to translation invariance:
           :   -0.0000000000    0.0000000000   -0.0000000000

Norm of the cartesian gradient     ...    0.1190094300
RMS gradient                       ...    0.0190567603
MAX gradient                       ...    0.0798590884

-------
TIMINGS
-------

Total SCF gradient time            ...        1.354 sec

One electron gradient       ....       0.007 sec  (  0.5%)
Prescreening matrices       ....       0.010 sec  (  0.8%)
Two electron gradient       ....       0.682 sec  ( 50.4%)
XC gradient                 ....       0.307 sec  ( 22.7%)
CPCM gradient               ....       0.198 sec  ( 14.6%)
   A-Matrix (El+Nuc)        ....       0.008 sec  (  0.6%)
   Potential                ....       0.190 sec  ( 14.0%)
------------------------------------------------------------------------------
                         ORCA GEOMETRY RELAXATION STEP
------------------------------------------------------------------------------

Reading the OPT-File                    .... done
Getting information on internals        .... done
Copying old internal coords+grads       .... done
Making the new internal coordinates     .... (new redundants).... done
Validating the new internal coordinates .... (new redundants).... done
Calculating the B-matrix                .... done
Calculating the G,G- and P matrices     .... done
Transforming gradient to internals      .... done
Projecting the internal gradient        .... done
Number of atoms                         ....  13
Number of internal coordinates          ....  62
Current Energy                          ....  -414.696243518 Eh
Current gradient norm                   ....     0.119009430 Eh/bohr
Maximum allowed component of the step   ....  0.300
Current trust radius                    ....  0.300
Evaluating the initial hessian          ....  (Almloef) done
Projecting the Hessian                  .... done
Forming the augmented Hessian           .... done
Diagonalizing the augmented Hessian     .... done
Last element of RFO vector              ....  0.979229555
Lowest eigenvalues of augmented Hessian:
 -0.021003468  0.021607749  0.023793775  0.027363036  0.028443730
Length of the computed step             ....  0.207055355
The final length of the internal step   ....  0.207055355
Converting the step to cartesian space:
 Initial RMS(Int)=    0.0262960564
Transforming coordinates:
 Iter   0:  RMS(Cart)=    0.0491859477 RMS(Int)=    0.7982567401
 Iter   1:  RMS(Cart)=    0.0008892001 RMS(Int)=    0.0005998406
 Iter   2:  RMS(Cart)=    0.0000325640 RMS(Int)=    0.0000167842
 Iter   3:  RMS(Cart)=    0.0000013274 RMS(Int)=    0.0000011190
 Iter   4:  RMS(Cart)=    0.0000000672 RMS(Int)=    0.0000000394
done
Storing new coordinates                 .... done

                                .--------------------.
          ----------------------|Geometry convergence|-------------------------
          Item                value                   Tolerance       Converged
          ---------------------------------------------------------------------
          RMS gradient        0.0131940152            0.0000080000      NO
          MAX gradient        0.0699111663            0.0000300000      NO
          RMS step            0.0262960564            0.0001000000      NO
          MAX step            0.1278309513            0.0002000000      NO
          ........................................................
          Max(Bonds)      0.0676      Max(Angles)    4.04
          Max(Dihed)        0.89      Max(Improp)    0.00
          ---------------------------------------------------------------------

The optimization has not yet converged - more geometry cycles are needed


    ---------------------------------------------------------------------------
                         Redundant Internal Coordinates
                            (Angstroem and degrees)

        Definition                    Value    dE/dq     Step     New-Value
    ----------------------------------------------------------------------------
     1. B(C   1,C   0)                1.3353  0.001367 -0.0014    1.3339   
     2. B(N   2,C   1)                1.4074 -0.032530  0.0313    1.4387   
     3. B(C   3,N   2)                1.4048 -0.069911  0.0676    1.4725   
     4. B(N   4,C   3)                1.3472 -0.007046  0.0061    1.3533   
     5. B(C   5,N   4)                1.3577 -0.037002  0.0303    1.3880   
     6. B(C   5,C   0)                1.4734 -0.007827  0.0080    1.4814   
     7. B(O   6,C   3)                1.2122  0.006617 -0.0032    1.2090   
     8. B(O   7,C   5)                1.2205  0.008203 -0.0041    1.2164   
     9. B(H   8,C   1)                1.0908  0.000362 -0.0005    1.0903   
    10. B(H   9,N   2)                1.0292 -0.009228  0.0115    1.0407   
    11. B(H  10,N   4)                1.0122 -0.009025  0.0106    1.0228   
    12. B(H  11,C   0)                1.0861 -0.002330  0.0032    1.0893   
    13. B(H  12,N   2)                1.0291 -0.009336  0.0116    1.0408   
    14. A(C   5,C   0,H  11)          116.21  0.001033    0.00    116.21   
    15. A(C   1,C   0,H  11)          122.36  0.004555   -0.52    121.84   
    16. A(C   1,C   0,C   5)          121.43 -0.005588    0.52    121.95   
    17. A(C   0,C   1,N   2)          119.57 -0.002421    0.17    119.74   
    18. A(C   0,C   1,H   8)          119.85 -0.010653    1.74    121.59   
    19. A(N   2,C   1,H   8)          120.58  0.013074   -1.90    118.68   
    20. A(C   3,N   2,H   9)          102.77 -0.006628    1.48    104.25   
    21. A(C   1,N   2,H   9)          114.78  0.008210   -1.76    113.02   
    22. A(C   3,N   2,H  12)          102.81 -0.006678    1.49    104.31   
    23. A(C   1,N   2,H  12)          114.90  0.008290   -1.78    113.11   
    24. A(C   1,N   2,C   3)          119.31 -0.001979    0.41    119.72   
    25. A(H   9,N   2,H  12)           99.64 -0.003596    0.66    100.30   
    26. A(N   2,C   3,O   6)          112.25 -0.033711    4.04    116.28   
    27. A(N   2,C   3,N   4)          120.19  0.024793   -3.03    117.16   
    28. A(N   4,C   3,O   6)          127.56  0.008918   -1.00    126.55   
    29. A(C   3,N   4,H  10)          119.14  0.010887   -1.55    117.59   
    30. A(C   3,N   4,C   5)          123.20 -0.013730    1.90    125.10   
    31. A(C   5,N   4,H  10)          117.65  0.002839   -0.35    117.30   
    32. A(C   0,C   5,N   4)          116.29 -0.001076    0.03    116.32   
    33. A(N   4,C   5,O   7)          122.82  0.009276   -1.06    121.77   
    34. A(C   0,C   5,O   7)          120.89 -0.008200    1.02    121.91   
    35. D(N   2,C   1,C   0,C   5)     -0.13 -0.000110    0.09     -0.04   
    36. D(H   8,C   1,C   0,C   5)    179.95 -0.000103    0.06    180.02   
    37. D(H   8,C   1,C   0,H  11)     -0.05 -0.000061    0.02     -0.03   
    38. D(N   2,C   1,C   0,H  11)    179.87 -0.000068    0.05    179.91   
    39. D(C   3,N   2,C   1,H   8)   -179.40 -0.000014   -0.01   -179.41   
    40. D(H   9,N   2,C   1,C   0)   -121.88  0.003606   -0.89   -122.77   
    41. D(H  12,N   2,C   1,C   0)    123.43 -0.003573    0.80    124.23   
    42. D(C   3,N   2,C   1,C   0)      0.69  0.000014   -0.04      0.64   
    43. D(H   9,N   2,C   1,H   8)     58.04  0.003578   -0.86     57.17   
    44. D(H  12,N   2,C   1,H   8)    -56.65 -0.003601    0.83    -55.82   
    45. D(O   6,C   3,N   2,C   1)    179.71  0.000024   -0.07    179.65   
    46. D(N   4,C   3,N   2,H   9)    127.89  0.003799   -0.78    127.11   
    47. D(N   4,C   3,N   2,C   1)     -0.43  0.000006   -0.01     -0.45   
    48. D(O   6,C   3,N   2,H   9)    -51.96  0.003817   -0.83    -52.80   
    49. D(N   4,C   3,N   2,H  12)   -128.95 -0.003837    0.77   -128.18   
    50. D(O   6,C   3,N   2,H  12)     51.20 -0.003818    0.72     51.91   
    51. D(H  10,N   4,C   3,O   6)      0.30  0.000036   -0.07      0.23   
    52. D(H  10,N   4,C   3,N   2)   -179.52  0.000120   -0.14   -179.66   
    53. D(C   5,N   4,C   3,O   6)    179.40 -0.000174    0.11    179.50   
    54. D(C   5,N   4,C   3,N   2)     -0.43 -0.000091    0.04     -0.39   
    55. D(O   7,C   5,N   4,H  10)      0.10 -0.000018   -0.02      0.08   
    56. D(C   0,C   5,N   4,H  10)   -179.94 -0.000187    0.18   -179.76   
    57. D(C   0,C   5,N   4,C   3)      0.96 -0.000051    0.01      0.97   
    58. D(O   7,C   5,C   0,H  11)     -0.71 -0.000158    0.17     -0.54   
    59. D(O   7,C   5,C   0,C   1)    179.29 -0.000118    0.13    179.42   
    60. D(O   7,C   5,N   4,C   3)   -179.01  0.000118   -0.18   -179.19   
    61. D(N   4,C   5,C   0,H  11)    179.33  0.000001   -0.02    179.31   
    62. D(N   4,C   5,C   0,C   1)     -0.67  0.000041   -0.06     -0.74   
    ----------------------------------------------------------------------------

         *************************************************************
         *                GEOMETRY OPTIMIZATION CYCLE   2            *
         *************************************************************
---------------------------------
CARTESIAN COORDINATES (ANGSTROEM)
---------------------------------
  C      1.357057    0.521213   -0.017176
  C      1.274514   -0.805378    0.093192
  N     -0.016384   -1.439835    0.118406
  C     -1.234889   -0.620492    0.007827
  N     -1.071565    0.718281   -0.105157
  C      0.151001    1.375528   -0.116891
  O     -2.285547   -1.218302    0.029337
  O      0.226314    2.586209   -0.207138
  H      2.165729   -1.429087    0.166480
  H     -0.170616   -2.014487    0.972231
  H     -1.914079    1.293664   -0.177041
  H      2.315911    1.037742   -0.038320
  H     -0.128107   -2.167585   -0.617190

----------------------------
CARTESIAN COORDINATES (A.U.)
----------------------------
  NO LB      ZA    FRAG     MASS         X           Y           Z
   0 C     6.0000    0    12.011    2.564467    0.984950   -0.032458
   1 C     6.0000    0    12.011    2.408482   -1.521944    0.176107
   2 N     7.0000    0    14.007   -0.030960   -2.720894    0.223755
   3 C     6.0000    0    12.011   -2.333602   -1.172561    0.014790
   4 N     7.0000    0    14.007   -2.024965    1.357354   -0.198717
   5 C     6.0000    0    12.011    0.285350    2.599371   -0.220891
   6 O     8.0000    0    15.999   -4.319059   -2.302257    0.055439
   7 O     8.0000    0    15.999    0.427672    4.887226   -0.391433
   8 H     1.0000    0     1.008    4.092635   -2.700583    0.314602
   9 H     1.0000    0     1.008   -0.322417   -3.806829    1.837251
  10 H     1.0000    0     1.008   -3.617084    2.444670   -0.334559
  11 H     1.0000    0     1.008    4.376437    1.961048   -0.072415
  12 H     1.0000    0     1.008   -0.242086   -4.096141   -1.166321

--------------------------------
INTERNAL COORDINATES (ANGSTROEM)
--------------------------------
 C      0   0   0     0.000000000000     0.00000000     0.00000000
 C      1   0   0     1.333730783589     0.00000000     0.00000000
 N      2   1   0     1.438606010536   119.71238633     0.00000000
 C      3   2   1     1.472516520896   119.72409750     0.64473399
 N      4   3   2     1.353422869161   117.18155685   359.55230232
 C      5   4   3     1.388084648715   125.12466302   359.60639066
 O      4   3   2     1.209017169996   116.27290007   179.64621737
 O      6   5   4     1.216373606738   121.76500301   180.81048052
 H      2   1   3     1.090251697494   121.60007837   180.05581476
 H      3   2   1     1.040687588917   113.00996607   237.24290632
 H      5   4   3     1.022771322021   117.57723766   180.33700667
 H      1   2   3     1.089333881361   121.85108871   179.91284949
 H      3   2   1     1.040770545308   113.09879757   124.21371481

---------------------------
INTERNAL COORDINATES (A.U.)
---------------------------
 C      0   0   0     0.000000000000     0.00000000     0.00000000
 C      1   0   0     2.520385917363     0.00000000     0.00000000
 N      2   1   0     2.718571374525   119.71238633     0.00000000
 C      3   2   1     2.782652952168   119.72409750     0.64473399
 N      4   3   2     2.557598566101   117.18155685   359.55230232
 C      5   4   3     2.623099836772   125.12466302   359.60639066
 O      4   3   2     2.284711342501   116.27290007   179.64621737
 O      6   5   4     2.298612993266   121.76500301   180.81048052
 H      2   1   3     2.060277125306   121.60007837   180.05581476
 H      3   2   1     1.966614534025   113.00996607   237.24290632
 H      5   4   3     1.932757696248   117.57723766   180.33700667
 H      1   2   3     2.058542704174   121.85108871   179.91284949
 H      3   2   1     1.966771298885   113.09879757   124.21371481



           ************************************************************
           *        Program running with 16 parallel MPI-processes    *
           *              working on a common directory               *
           ************************************************************


           ************************************************************
           *        Program running with 16 parallel MPI-processes    *
           *              working on a common directory               *
           ************************************************************

Diagonalization of the overlap matrix:
Smallest eigenvalue                        ... 1.287e-03
Time for diagonalization                   ...    0.004 sec
Threshold for overlap eigenvalues          ... 1.000e-08
Number of eigenvalues below threshold      ... 0
Time for construction of square roots      ...    0.002 sec
Total time needed                          ...    0.007 sec

-------------------
DFT GRID GENERATION
-------------------

General Integration Accuracy     IntAcc      ...  4.340
Radial Grid Type                 RadialGrid  ... Gauss-Chebyshev
Angular Grid (max. acc.)         AngularGrid ... Lebedev-110
Angular grid pruning method      GridPruning ... 3 (G Style)
Weight generation scheme         WeightScheme... Becke
Basis function cutoff            BFCut       ...    3.0000e-14
Integration weight cutoff        WCut        ...    1.0000e-14
Grids for H and He will be reduced by one unit

# of grid points (after initial pruning)     ...  17430 (   0.0 sec)
# of grid points (after weights+screening)   ...  16319 (   0.0 sec)
nearest neighbour list constructed           ...    0.0 sec
Grid point re-assignment to atoms done       ...    0.0 sec
Grid point division into batches done        ...    0.0 sec
Reduced shell lists constructed in    0.0 sec

Total number of grid points                  ...    16319
Total number of batches                      ...      261
Average number of points per batch           ...       62
Average number of grid points per atom       ...     1255
Average number of shells per batch           ...    52.22 (82.89%)
Average number of basis functions per batch  ...   117.44 (85.73%)
Average number of large shells per batch     ...    47.50 (90.96%)
Average number of large basis fcns per batch ...   104.83 (89.26%)
Maximum spatial batch extension              ...   3.66,  3.66, 10.83 au
Average spatial batch extension              ...   0.12,  0.12,  0.17 au

Time for grid setup =    0.050 sec


--------------------
CPCM SOLVATION MODEL
--------------------
CPCM parameters:
  Epsilon                                         ...      80.4000
  Refrac                                          ...       1.3300
  Rsolv                                           ...       1.3000
  Surface type                                    ...    GEPOL SES
  Epsilon function type                           ...         CPCM
Radii:
 Radius for C  used is    3.7795 Bohr (=   2.0000 Ang.)
 Radius for N  used is    3.4582 Bohr (=   1.8300 Ang.)
 Radius for O  used is    3.2503 Bohr (=   1.7200 Ang.)
 Radius for H  used is    2.4566 Bohr (=   1.3000 Ang.)
Calculating surface                               ...        done! (  0.0s)
GEPOL surface points                              ...          412
GEPOL Volume                                      ...     818.7212
GEPOL Surface-area                                ...     489.3942
Calculating surface distance matrix               ...        done! (  0.0s)
Performing Cholesky decomposition & store         ...        done! (  0.0s)
Overall time for CPCM initialization              ...                 0.0s
--------------
SCF ITERATIONS
--------------
ITER       Energy         Delta-E        Max-DP      RMS-DP      [F,P]     Damp
               ***  Starting incremental Fock matrix formation  ***
  0   -414.7050743527   0.000000000000 0.00778476  0.00033600  0.0230944 0.7000
                      *** Initiating the SOSCF procedure ***
                      *** Re-Reading the Fockian *** 
                      *** Removing any level shift *** 
ITER      Energy       Delta-E        Grad      Rot      Max-DP    RMS-DP
  1   -414.70657330  -0.0014989454  0.002145  0.002145  0.024329  0.000926
               *** Restarting incremental Fock matrix formation ***
  2   -414.71011625  -0.0035429557  0.002392  0.006022  0.011466  0.000373
  3   -414.70979431   0.0003219463  0.005631  0.004819  0.009704  0.000250
  4   -414.71031276  -0.0005184522  0.000674  0.001071  0.003097  0.000075
  5   -414.71030513   0.0000076341  0.001086  0.000640  0.001957  0.000042
  6   -414.71032102  -0.0000158963  0.000077  0.000318  0.000341  0.000013
  7   -414.71032075   0.0000002740  0.000112  0.000178  0.000217  0.000008
  8   -414.71032124  -0.0000004917  0.000019  0.000047  0.000092  0.000003
  9   -414.71032123   0.0000000066  0.000027  0.000032  0.000055  0.000002
 10   -414.71032125  -0.0000000172  0.000004  0.000013  0.000027  0.000001
 11   -414.71032125   0.0000000004  0.000005  0.000007  0.000015  0.000000
 12   -414.71032125  -0.0000000009  0.000000  0.000001  0.000003  0.000000
 13   -414.71032125   0.0000000000  0.000001  0.000001  0.000002  0.000000
                  ***Gradient check signals convergence***
              ***Rediagonalizing the Fockian in SOSCF/NRSCF***

               *****************************************************
               *                     SUCCESS                       *
               *           SCF CONVERGED AFTER  14 CYCLES          *
               *****************************************************

Setting up the final grid:

General Integration Accuracy     IntAcc      ...  4.670
Radial Grid Type                 RadialGrid  ... Gauss-Chebyshev
Angular Grid (max. acc.)         AngularGrid ... Lebedev-302
Angular grid pruning method      GridPruning ... 3 (G Style)
Weight generation scheme         WeightScheme... Becke
Basis function cutoff            BFCut       ...    3.0000e-14
Integration weight cutoff        WCut        ...    1.0000e-14
Grids for H and He will be reduced by one unit

# of grid points (after initial pruning)     ...  66666 (   0.0 sec)
# of grid points (after weights+screening)   ...  61637 (   0.0 sec)
nearest neighbour list constructed           ...    0.0 sec
Grid point re-assignment to atoms done       ...    0.0 sec
Grid point division into batches done        ...    0.3 sec
Reduced shell lists constructed in    0.3 sec

Total number of grid points                  ...    61637
Total number of batches                      ...      969
Average number of points per batch           ...       63
Average number of grid points per atom       ...     4741
Average number of shells per batch           ...    53.24 (84.51%)
Average number of basis functions per batch  ...   118.92 (86.80%)
Average number of large shells per batch     ...    45.95 (86.31%)
Average number of large basis fcns per batch ...    99.11 (83.34%)
Maximum spatial batch extension              ...   3.36,  3.46,  9.15 au
Average spatial batch extension              ...   0.08,  0.08,  0.09 au

Final grid set up in    0.4 sec
Final integration                            ... done (   0.2 sec)
Change in XC energy                          ...    -0.000102958
Integrated number of electrons               ...    58.000007192
Previous integrated no of electrons          ...    57.998286886
Total Energy       :         -414.71042421 Eh          -11284.84435 eV
  Last Energy change         ...   -2.1259e-11  Tolerance :   1.0000e-10
  Last MAX-Density change    ...    2.6601e-07  Tolerance :   1.0000e-05
             **** THE GBW FILE WAS UPDATED (Uracil_1.gbw) ****
             **** DENSITY FILE WAS UPDATED (Uracil_1.scfp) ****
             **** ENERGY FILE WAS UPDATED (Uracil_1.en.tmp) ****
             **** THE GBW FILE WAS UPDATED (Uracil_1.gbw) ****
             **** DENSITY FILE WAS UPDATED (Uracil_1.scfp) ****
Total SCF time: 0 days 0 hours 0 min 10 sec 

-------------------------   --------------------
FINAL SINGLE POINT ENERGY      -414.710424209083
-------------------------   --------------------



           ************************************************************
           *        Program running with 16 parallel MPI-processes    *
           *              working on a common directory               *
           ************************************************************
------------------------------------------------------------------------------
                         ORCA SCF GRADIENT CALCULATION
------------------------------------------------------------------------------

Gradient of the Kohn-Sham DFT energy:
Kohn-Sham wavefunction type      ... RKS
Hartree-Fock exchange scaling    ...    0.200
Number of operators              ...    1
Number of atoms                  ...   13
Basis set dimensions             ...  137
Integral neglect threshold       ... 1.0e-13
Integral primitive cutoff        ... 1.0e-14

Nuclear repulsion gradient       ... done
One Electron Gradient            ... done
Pre-screening matrix             ... done
Starting the two electron gradient:
Two electron gradient done
Exchange-correlation gradient    ... done

------------------
CARTESIAN GRADIENT
------------------

   1   C   :    0.008244973    0.004067838   -0.000086429
   2   C   :   -0.017559339   -0.014712747    0.000799426
   3   N   :    0.001374374    0.016807902   -0.001543384
   4   C   :    0.043809029    0.002982045    0.001167551
   5   N   :   -0.004089915    0.007105043   -0.001114144
   6   C   :   -0.016905860   -0.018926782    0.001186826
   7   O   :   -0.013554170   -0.010010816    0.000572853
   8   O   :    0.005560847    0.007178997   -0.000362714
   9   H   :    0.005118865    0.007403209   -0.000584120
  10   H   :   -0.005923153   -0.002436588   -0.001299538
  11   H   :    0.000773827    0.001968564    0.000005918
  12   H   :   -0.000861427    0.000757121   -0.000132277
  13   H   :   -0.005988051   -0.002183785    0.001390034

Difference to translation invariance:
           :   -0.0000000000   -0.0000000000   -0.0000000000

Norm of the cartesian gradient     ...    0.0638701851
RMS gradient                       ...    0.0102274148
MAX gradient                       ...    0.0438090290

-------
TIMINGS
-------

Total SCF gradient time            ...        1.291 sec

One electron gradient       ....       0.007 sec  (  0.5%)
Prescreening matrices       ....       0.010 sec  (  0.8%)
Two electron gradient       ....       0.649 sec  ( 50.3%)
XC gradient                 ....       0.313 sec  ( 24.2%)
CPCM gradient               ....       0.138 sec  ( 10.7%)
   A-Matrix (El+Nuc)        ....       0.006 sec  (  0.5%)
   Potential                ....       0.132 sec  ( 10.2%)
------------------------------------------------------------------------------
                         ORCA GEOMETRY RELAXATION STEP
------------------------------------------------------------------------------

Reading the OPT-File                    .... done
Getting information on internals        .... done
Copying old internal coords+grads       .... done
Making the new internal coordinates     .... (new redundants).... done
Validating the new internal coordinates .... (new redundants).... done
Calculating the B-matrix                .... done
Calculating the G,G- and P matrices     .... done
Transforming gradient to internals      .... done
Projecting the internal gradient        .... done
Number of atoms                         ....  13
Number of internal coordinates          ....  62
Current Energy                          ....  -414.710424209 Eh
Current gradient norm                   ....     0.063870185 Eh/bohr
Maximum allowed component of the step   ....  0.300
Current trust radius                    ....  0.300
Updating the Hessian (BFGS)             .... done
Forming the augmented Hessian           .... done
Diagonalizing the augmented Hessian     .... done
Last element of RFO vector              ....  0.989849724
Lowest eigenvalues of augmented Hessian:
 -0.005418660  0.021607665  0.023794681  0.027364302  0.028443621
Length of the computed step             ....  0.143575320
The final length of the internal step   ....  0.143575320
Converting the step to cartesian space:
 Initial RMS(Int)=    0.0182340839
Transforming coordinates:
 Iter   0:  RMS(Cart)=    0.0267887780 RMS(Int)=    0.0182023045
 Iter   1:  RMS(Cart)=    0.0005272412 RMS(Int)=    0.0003522844
 Iter   2:  RMS(Cart)=    0.0000135965 RMS(Int)=    0.0000090029
 Iter   3:  RMS(Cart)=    0.0000005471 RMS(Int)=    0.0000004214
 Iter   4:  RMS(Cart)=    0.0000000181 RMS(Int)=    0.0000000119
done
Storing new coordinates                 .... done

                                .--------------------.
          ----------------------|Geometry convergence|-------------------------
          Item                value                   Tolerance       Converged
          ---------------------------------------------------------------------
          Energy change      -0.0141806907            0.0000002000      NO
          RMS gradient        0.0051471083            0.0000080000      NO
          MAX gradient        0.0192014833            0.0000300000      NO
          RMS step            0.0182340839            0.0001000000      NO
          MAX step            0.0635121311            0.0002000000      NO
          ........................................................
          Max(Bonds)      0.0336      Max(Angles)    2.50
          Max(Dihed)        1.10      Max(Improp)    0.00
          ---------------------------------------------------------------------

The optimization has not yet converged - more geometry cycles are needed


    ---------------------------------------------------------------------------
                         Redundant Internal Coordinates
                            (Angstroem and degrees)

        Definition                    Value    dE/dq     Step     New-Value
    ----------------------------------------------------------------------------
     1. B(C   1,C   0)                1.3337  0.002086 -0.0025    1.3313   
     2. B(N   2,C   1)                1.4386 -0.009647  0.0167    1.4553   
     3. B(C   3,N   2)                1.4725 -0.019201  0.0336    1.5061   
     4. B(N   4,C   3)                1.3534 -0.001043  0.0020    1.3554   
     5. B(C   5,N   4)                1.3881 -0.011502  0.0167    1.4048   
     6. B(C   5,C   0)                1.4813  0.000691 -0.0008    1.4805   
     7. B(O   6,C   3)                1.2090  0.016739 -0.0124    1.1966   
     8. B(O   7,C   5)                1.2164  0.007517 -0.0060    1.2104   
     9. B(H   8,C   1)                1.0903 -0.000090  0.0002    1.0904   
    10. B(H   9,N   2)                1.0407  0.001164 -0.0014    1.0393   
[...]
     11      -0.021557  -0.204658  -0.005202  -0.016201  -0.001284   0.002166
     12       0.057701  -0.002730   0.271654   0.021120  -0.119466   0.030880
     13       0.168363   0.001632  -0.080043   0.002718  -0.011150   0.048425
     14      -0.012002   0.033706   0.014978   0.003427  -0.001786  -0.003275
     15       0.112315  -0.001734   0.051438  -0.003476   0.021075  -0.035200
     16      -0.099825   0.003110   0.007829  -0.003955   0.014057  -0.006599
     17       0.011997   0.028080  -0.000197  -0.014106  -0.004671  -0.000400
     18       0.035584  -0.001030  -0.084343   0.001420  -0.005572  -0.007660
     19      -0.058342   0.004302  -0.051631  -0.006968   0.039444  -0.007707
     20       0.006789   0.042392   0.002204   0.004007  -0.002785   0.000409
     21      -0.044151   0.000544  -0.013619   0.000369  -0.002864  -0.001119
     22      -0.132680   0.000093   0.034940  -0.000548   0.003844   0.014294
     23       0.009943  -0.008963  -0.003102   0.004720   0.001079  -0.001203
     24       0.127381  -0.008769   0.155760   0.024650  -0.224026  -0.443769
     25       0.477266   0.016832   0.094450   0.059145  -0.003231  -0.523364
     26      -0.033269   0.238873   0.010710   0.630275   0.190051   0.035103
     27       0.170242  -0.044570   0.209666  -0.027567   0.393984   0.255594
     28      -0.171029  -0.507685   0.211321  -0.049779   0.024720  -0.046902
     29       0.057186  -0.144854  -0.050336  -0.013825  -0.006399   0.002745
     30       0.318831  -0.006355   0.431524   0.036857  -0.206308   0.089874
     31       0.545170  -0.001236   0.127455   0.023191  -0.127430   0.133423
     32      -0.037419   0.051138  -0.000706  -0.002997   0.005085  -0.009054
     33      -0.024256  -0.010009  -0.408640  -0.037754   0.317562  -0.238857
     34      -0.024012   0.040827  -0.174013   0.044316  -0.578156   0.541078
     35       0.011055   0.513168  -0.007071  -0.739246  -0.170344  -0.051901
     36       0.177284   0.054209   0.212022  -0.117712   0.370394   0.261154
     37      -0.173033   0.478360   0.226728   0.031483   0.044031  -0.046698
     38      -0.018082  -0.230611   0.019863  -0.027961   0.012563   0.019985
                 24         25         26         27         28         29    
      0       0.004710  -0.000477  -0.082771   0.097093  -0.109550   0.005825
      1      -0.017828   0.000303  -0.069820  -0.046473   0.091124  -0.003798
      2       0.001489   0.003859   0.003665   0.006523  -0.010597   0.000502
      3      -0.074301   0.002894   0.040356  -0.117552   0.043367  -0.013120
      4      -0.055184  -0.005095   0.008224  -0.049411   0.041015   0.019249
      5       0.003029  -0.060808   0.000644   0.000411  -0.002964  -0.002212
      6       0.050000  -0.002702  -0.141368   0.117016   0.101983   0.052786
      7      -0.005773   0.000293   0.061409   0.033929  -0.025463   0.014398
      8       0.001802   0.004693  -0.008929   0.000347   0.004975   0.000228
      9      -0.050649  -0.002353   0.159256   0.051549   0.036786   0.040082
     10       0.123824   0.007046  -0.229400  -0.108001  -0.042407  -0.045189
     11      -0.012104   0.068549   0.023573   0.011775   0.005356   0.005340
     12      -0.062362   0.000184  -0.141947  -0.011672  -0.076039   0.122111
     13      -0.112528  -0.001190   0.148974   0.022528  -0.011504   0.206905
     14       0.007823  -0.006117  -0.016733  -0.002278  -0.001176  -0.014401
     15       0.177761   0.000435   0.288406  -0.064416   0.140980  -0.010460
     16       0.024304  -0.000113  -0.004744  -0.014990   0.008682   0.003218
     17       0.002812  -0.003614   0.008351  -0.000628   0.003027  -0.000344
     18       0.033158   0.001415  -0.051383  -0.039075  -0.019134  -0.090804
     19       0.017167  -0.000688   0.008857   0.002642   0.008125  -0.055460
     20      -0.000490  -0.010704  -0.002157  -0.001484  -0.001297   0.002081
     21      -0.014787  -0.000069  -0.051000   0.006341  -0.012055  -0.017600
     22       0.009728  -0.000140  -0.012575   0.034814  -0.021333  -0.066025
     23      -0.001263   0.000618  -0.000301  -0.002787   0.001430   0.005057
     24       0.091720   0.001347   0.305355   0.211761  -0.421997  -0.046908
     25       0.146075   0.007969   0.334506   0.364901  -0.524432  -0.012894
     26      -0.010971   0.066219  -0.022594  -0.025551   0.035634   0.000217
     27      -0.116139  -0.693910   0.376325  -0.463370  -0.445545  -0.200043
     28       0.036628   0.049576  -0.123252   0.068070   0.055150  -0.040097
     29       0.008331  -0.034527  -0.060100  -0.031548   0.000501  -0.056097
     30      -0.339743  -0.002239  -0.048136   0.242844   0.060786  -0.543061
     31      -0.508707  -0.006088   0.298078   0.387413   0.186038  -0.728597
     32       0.034395  -0.017041  -0.025823  -0.026745  -0.014190   0.047577
     33      -0.321869  -0.001019  -0.267090  -0.094356   0.043547   0.012901
     34       0.613865   0.003213   0.257938   0.337880  -0.218322  -0.019360
     35      -0.059921   0.057274  -0.028415  -0.030078   0.019815   0.002091
     36      -0.119171   0.703508   0.366679  -0.444064  -0.431860  -0.198680
     37       0.034099  -0.054565  -0.107770   0.070780   0.052236  -0.030026
     38      -0.020877   0.012780   0.100806  -0.006899  -0.034961   0.050727
                 30         31         32         33         34         35    
      0       0.001281   0.032709  -0.045053  -0.006811   0.065802  -0.041273
      1      -0.023923  -0.474300   0.192109  -0.001156   0.032879  -0.030562
      2       0.002081   0.041667  -0.017492  -0.000177  -0.001091   0.001543
      3       0.000555   0.081877  -0.015848   0.009846  -0.036261  -0.055686
      4       0.010637   0.487560  -0.110336  -0.017113   0.028170   0.055571
      5      -0.000839  -0.040054   0.009097   0.001900  -0.003397  -0.006278
      6      -0.012520   0.009944   0.000851   0.014939   0.000186   0.001165
      7      -0.061389  -0.049859   0.013821   0.036472   0.000324  -0.000345
      8       0.004850   0.004483  -0.001169  -0.002755  -0.000035   0.000029
      9       0.014494  -0.054136  -0.110895  -0.612048   0.000541   0.000737
     10      -0.021307   0.016344  -0.083156  -0.486240  -0.000080   0.000122
     11       0.002456  -0.002914   0.003991   0.023886   0.000024   0.000008
     12       0.004104  -0.000366   0.012115   0.054326  -0.000329   0.000191
     13       0.018965  -0.016640   0.083449   0.117780   0.000087  -0.000026
     14      -0.001537   0.001401  -0.006814  -0.008544  -0.000017   0.000003
     15       0.004650  -0.000441   0.063792   0.028920  -0.001729   0.001104
     16       0.000069  -0.117151  -0.681341   0.172097   0.000937  -0.001380
     17       0.000138   0.010032   0.059260  -0.013607  -0.000129   0.000141
     18      -0.011243   0.035728   0.072277   0.410459  -0.000027  -0.000004
     19      -0.004217   0.011314   0.037612   0.231305  -0.000000  -0.000043
     20       0.000010   0.000071  -0.001156  -0.007986  -0.000001  -0.000001
     21      -0.002927  -0.010030  -0.000179  -0.010209   0.000224  -0.000075
     22      -0.000647   0.126825   0.419171  -0.117667  -0.000354   0.000410
     23      -0.000018  -0.011011  -0.035437   0.009619   0.000033  -0.000038
     24      -0.001448  -0.483984   0.091733   0.031523   0.415218   0.646991
     25       0.009644  -0.037478  -0.021727  -0.006820  -0.337303  -0.531339
     26      -0.000907  -0.008557   0.003981   0.001484   0.040191   0.063173
     27       0.058813  -0.201960  -0.001600  -0.135162  -0.003780  -0.003370
     28       0.576014  -0.124665   0.040841   0.079678  -0.007875   0.000135
     29       0.402168  -0.072344   0.023944  -0.019716   0.011321  -0.003222
     30      -0.026879  -0.020814  -0.286075  -0.140700  -0.000593   0.001183
     31      -0.023084  -0.045123  -0.327450  -0.171214  -0.000042  -0.000272
     32       0.001145   0.003292   0.020715   0.011145  -0.000017   0.000050
     33      -0.022995  -0.343554   0.158226  -0.019060  -0.746642   0.474536
     34       0.019578   0.094066  -0.194643   0.030354  -0.382906   0.246800
     35      -0.002315  -0.016895   0.020469  -0.003043   0.013208  -0.008610
     36       0.084383  -0.205704   0.000138  -0.139659  -0.003190  -0.003533
     37       0.495949  -0.112111   0.036392   0.081789  -0.009613   0.000985
     38      -0.491721   0.082327  -0.031017  -0.001806  -0.009750   0.003427
                  36         37         38    
      0       0.001830   0.000063   0.000737
      1       0.002081   0.000110  -0.000007
      2      -0.000160   0.000312   0.000019
      3      -0.002115  -0.000055  -0.000025
      4      -0.000133  -0.000071  -0.000103
      5      -0.000025  -0.000976   0.000003
      6      -0.006777  -0.002493   0.000330
      7      -0.060967   0.004778  -0.001376
      8       0.002290   0.079973   0.000133
      9       0.003453   0.000188   0.000666
     10      -0.000504  -0.000103  -0.000461
     11       0.000138  -0.000613   0.000045
     12       0.000227   0.000015  -0.060020
     13       0.000352   0.000019   0.042724
     14      -0.000021   0.000192  -0.005365
     15       0.000186   0.000009   0.000605
     16      -0.001055  -0.000048  -0.000481
     17       0.000096  -0.000102   0.000061
     18      -0.001139  -0.000018  -0.000620
     19      -0.000261  -0.000027  -0.000371
     20      -0.000002  -0.000034   0.000019
     21      -0.000036  -0.000006  -0.000059
     22       0.000535   0.000020   0.000329
     23      -0.000038   0.000032  -0.000030
     24       0.004699   0.000580  -0.000352
     25      -0.003397  -0.000490   0.000525
     26       0.000407  -0.001298  -0.000064
     27       0.058026   0.063381   0.001145
     28       0.351675   0.400926   0.004089
     29      -0.578614  -0.607632  -0.007045
     30      -0.009441  -0.000433   0.814771
     31       0.008743   0.000448  -0.570386
     32      -0.001045   0.001270   0.072188
     33      -0.015075  -0.000540   0.000208
     34      -0.006298  -0.000064  -0.000818
     35       0.000060   0.001575   0.000065
     36       0.031488  -0.030610   0.000828
     37       0.482609  -0.466024   0.005212
     38       0.547720  -0.491402   0.006215


-----------
IR SPECTRUM
-----------

 Mode    freq (cm**-1)   T**2         TX         TY         TZ
-------------------------------------------------------------------
   7:       134.61    9.747823  ( -0.095966   0.266008   3.109317)
   8:       285.36    1.849560  ( -0.055349   0.119037   1.353635)
   9:       392.13   58.987635  (  5.984705  -4.774815   0.609983)
  10:       475.72   42.479761  (  2.639071   5.945182  -0.412163)
  11:       511.41   48.892773  (  0.180206  -0.614379  -6.962962)
  12:       531.20   30.080228  ( -4.763985  -2.715232   0.110393)
  13:       542.48    8.361745  ( -0.858665   2.723846  -0.452884)
  14:       665.25    0.574073  (  0.052541   0.003744   0.755843)
  15:       670.44  117.278103  ( -0.296181   0.912541  10.786920)
  16:       690.59   12.900894  (  1.415171  -3.289416   0.279150)
  17:       807.55  116.624789  ( -0.245851   0.873636  10.761092)
  18:       869.55   16.451900  ( -3.078106   2.628226  -0.263800)
  19:       921.08    0.489574  (  0.067324  -0.057042  -0.694109)
  20:       949.69    2.742181  ( -0.672623  -1.509324   0.108172)
  21:       979.96    1.471513  ( -0.732808   0.540611  -0.801402)
  22:       982.24   17.144815  (  3.234040  -2.574841   0.236630)
  23:      1157.24   66.689980  ( -4.036095  -7.076213   0.571950)
  24:      1246.85  153.185944  (  3.508358  11.831731  -0.942074)
  25:      1269.34    1.819884  (  0.125799   0.346108   1.297793)
  26:      1330.29  463.208690  ( 19.715768  -8.529343   1.321924)
  27:      1365.08   94.423145  ( -9.109059  -3.382964  -0.061161)
  28:      1384.46   46.864648  (  5.929669   3.414451  -0.212589)
  29:      1442.98  133.700751  ( -7.198222  -9.032902   0.541332)
  30:      1477.67  117.140756  (  0.999759  10.738026  -0.914352)
  31:      1741.67   24.863313  ( -4.980522   0.159097  -0.180018)
  32:      1817.54  982.243184  ( -7.706670 -30.287228   2.352494)
  33:      1903.71  727.670740  (-23.263941 -13.646646   0.478359)
  34:      3235.23   19.731344  ( -1.545420  -4.152224   0.319456)
  35:      3249.33   23.371540  (  4.485443  -1.775250   0.317536)
  36:      3339.17  300.658237  ( -0.282378  17.312097  -0.932634)
  37:      3365.92  247.090814  (  0.406716  -0.790363 -15.693971)
  38:      3534.15  210.080569  ( 11.122436  -9.228496   1.098568)

The first frequency considered to be a vibration is 7
The total number of vibrations considered is 32


--------------------------
THERMOCHEMISTRY AT 298.15K
--------------------------

Temperature         ... 298.15 K
Pressure            ... 1.00 atm
Total Mass          ... 113.10 AMU

Throughout the following assumptions are being made:
  (1) The electronic state is orbitally nondegenerate
  (2) There are no thermally accessible electronically excited states
  (3) Hindered rotations indicated by low frequency modes are not
      treated as such but are treated as vibrations and this may
      cause some error
  (4) All equations used are the standard statistical mechanics
      equations for an ideal gas
  (5) All vibrations are strictly harmonic

freq.     134.61  E(vib)   ...       0.42 
freq.     285.36  E(vib)   ...       0.28 
freq.     392.13  E(vib)   ...       0.20 
freq.     475.72  E(vib)   ...       0.15 
freq.     511.41  E(vib)   ...       0.14 
freq.     531.20  E(vib)   ...       0.13 
freq.     542.48  E(vib)   ...       0.12 
freq.     665.25  E(vib)   ...       0.08 
freq.     670.44  E(vib)   ...       0.08 
freq.     690.59  E(vib)   ...       0.07 
freq.     807.55  E(vib)   ...       0.05 
freq.     869.55  E(vib)   ...       0.04 
freq.     921.08  E(vib)   ...       0.03 
freq.     949.69  E(vib)   ...       0.03 
freq.     979.96  E(vib)   ...       0.02 
freq.     982.24  E(vib)   ...       0.02 
freq.    1157.24  E(vib)   ...       0.01 
freq.    1246.85  E(vib)   ...       0.01 
freq.    1269.34  E(vib)   ...       0.01 
freq.    1330.29  E(vib)   ...       0.01 
freq.    1365.08  E(vib)   ...       0.01 
freq.    1384.46  E(vib)   ...       0.00 
freq.    1442.98  E(vib)   ...       0.00 
freq.    1477.67  E(vib)   ...       0.00 
freq.    1741.67  E(vib)   ...       0.00 
freq.    1817.54  E(vib)   ...       0.00 
freq.    1903.71  E(vib)   ...       0.00 
freq.    3235.23  E(vib)   ...       0.00 
freq.    3249.33  E(vib)   ...       0.00 
freq.    3339.17  E(vib)   ...       0.00 
freq.    3365.92  E(vib)   ...       0.00 
freq.    3534.15  E(vib)   ...       0.00 

------------
INNER ENERGY
------------

The inner energy is: U= E(el) + E(ZPE) + E(vib) + E(rot) + E(trans)
    E(el)   - is the total energy from the electronic structure calculation
              = E(kin-el) + E(nuc-el) + E(el-el) + E(nuc-nuc)
    E(ZPE)  - the the zero temperature vibrational energy from the frequency calculation
    E(vib)  - the the finite temperature correction to E(ZPE) due to population
              of excited vibrational states
    E(rot)  - is the rotational thermal energy
    E(trans)- is the translational thermal energy

Summary of contributions to the inner energy U:
Electronic energy                ...   -414.71475031 Eh
Zero point energy                ...      0.09857604 Eh      61.86 kcal/mol
Thermal vibrational correction   ...      0.00304968 Eh       1.91 kcal/mol
Thermal rotational correction    ...      0.00141627 Eh       0.89 kcal/mol
Thermal translational correction ...      0.00141627 Eh       0.89 kcal/mol
-----------------------------------------------------------------------
Total thermal energy                   -414.61029205 Eh


Summary of corrections to the electronic energy:
(perhaps to be used in another calculation)
Total thermal correction                  0.00588222 Eh       3.69 kcal/mol
Non-thermal (ZPE) correction              0.09857604 Eh      61.86 kcal/mol
-----------------------------------------------------------------------
Total correction                          0.10445827 Eh      65.55 kcal/mol


--------
ENTHALPY
--------

The enthalpy is H = U + kB*T
                kB is Boltzmann's constant
Total free energy                 ...   -414.61029205 Eh 
Thermal Enthalpy correction       ...      0.00094421 Eh       0.59 kcal/mol
-----------------------------------------------------------------------
Total Enthalpy                    ...   -414.60934784 Eh


Note: Only C1 symmetry has been detected, increase convergence thresholds 
      if your molecule has a higher symmetry. Symmetry factor of 1.0 is   
      used for the rotational entropy correction. 
 

Note: Rotational entropy computed according to Herzberg 
Infrared and Raman Spectra, Chapter V,1, Van Nostrand Reinhold, 1945 
Point Group:  C1, Symmetry Number:   1  
Rotational constants in cm-1:     0.120551     0.066203     0.043025 

Vibrational entropy computed according to the QRRHO of S. Grimme
Chem.Eur.J. 2012 18 9955


-------
ENTROPY
-------

The entropy contributions are T*S = T*(S(el)+S(vib)+S(rot)+S(trans))
     S(el)   - electronic entropy
     S(vib)  - vibrational entropy
     S(rot)  - rotational entropy
     S(trans)- translational entropy
The entropies will be listed as mutliplied by the temperature to get
units of energy

Electronic entropy                ...      0.00000000 Eh      0.00 kcal/mol
Vibrational entropy               ...      0.00467351 Eh      2.93 kcal/mol
Rotational entropy                ...      0.01327652 Eh      8.33 kcal/mol
Translational entropy             ...      0.01904554 Eh     11.95 kcal/mol
-----------------------------------------------------------------------
Final entropy term                ...      0.03699558 Eh     23.22 kcal/mol

In case the symmetry of your molecule has not been determined correctly
or in case you have a reason to use a different symmetry number we print 
out the resulting rotational entropy values for sn=1,12 :
 --------------------------------------------------------
|  sn= 1 | S(rot)=       0.01327652 Eh      8.33 kcal/mol|
|  sn= 2 | S(rot)=       0.01262207 Eh      7.92 kcal/mol|
|  sn= 3 | S(rot)=       0.01223924 Eh      7.68 kcal/mol|
|  sn= 4 | S(rot)=       0.01196761 Eh      7.51 kcal/mol|
|  sn= 5 | S(rot)=       0.01175692 Eh      7.38 kcal/mol|
|  sn= 6 | S(rot)=       0.01158478 Eh      7.27 kcal/mol|
|  sn= 7 | S(rot)=       0.01143923 Eh      7.18 kcal/mol|
|  sn= 8 | S(rot)=       0.01131316 Eh      7.10 kcal/mol|
|  sn= 9 | S(rot)=       0.01120195 Eh      7.03 kcal/mol|
|  sn=10 | S(rot)=       0.01110247 Eh      6.97 kcal/mol|
|  sn=11 | S(rot)=       0.01101248 Eh      6.91 kcal/mol|
|  sn=12 | S(rot)=       0.01093032 Eh      6.86 kcal/mol|
 --------------------------------------------------------


-------------------
GIBBS FREE ENERGY
-------------------

The Gibbs free energy is G = H - T*S

Total enthalpy                    ...   -414.60934784 Eh 
Total entropy correction          ...     -0.03699558 Eh    -23.22 kcal/mol
-----------------------------------------------------------------------
Final Gibbs free energy         ...   -414.64634341 Eh

For completeness - the Gibbs free energy minus the electronic energy
G-E(el)                           ...      0.06840690 Eh     42.93 kcal/mol


Timings for individual modules:

Sum of individual times         ...      310.066 sec (=   5.168 min)
GTO integral calculation        ...       15.293 sec (=   0.255 min)   4.9 %
SCF iterations                  ...      181.713 sec (=   3.029 min)  58.6 %
SCF Gradient evaluation         ...       37.627 sec (=   0.627 min)  12.1 %
Geometry relaxation             ...        1.375 sec (=   0.023 min)   0.4 %
Analytical frequency calculation...       74.056 sec (=   1.234 min)  23.9 %
                             ****ORCA TERMINATED NORMALLY****
TOTAL RUN TIME: 0 days 0 hours 5 minutes 11 seconds 659 msec
