13
* (null), Energy   -1000.0000000
C     1.653111    0.338806   -0.072409    0.118708    0.336355   -0.166866
C     1.417036   -0.968802    0.212159    0.263961    0.446565   -0.031503
N     0.169278   -1.530502    0.333752    0.191252    0.071033   -0.040117
C    -1.013486   -0.875739    0.188129   -0.170349   -0.384711    0.108792
N    -0.831970    0.606548   -0.032497   -0.139522   -0.342652    0.127422
C     0.583167    1.266264   -0.274550   -0.207752   -0.182152    0.115075
O    -2.113843   -1.335674    0.228076   -0.505558    0.284688   -0.084813
O     0.565830    2.420049   -0.573838    0.423036   -0.236404    0.019490
H     2.239204   -1.673303    0.354845    0.322657    0.530818    0.022817
H     0.099186   -2.533091    0.514228    0.793920    0.025717   -0.050240
H    -1.444922    0.886451   -0.818414   -0.027283   -0.588224   -0.047337
H     2.672257    0.711579   -0.172265   -0.075941    0.814134   -0.364354
H    -1.242310    1.089691    0.787885   -0.476819   -0.348910   -0.041086
13
* Frequency(13)  570.0057
C     1.666602    0.377031   -0.091372    0.118708    0.336355   -0.166866
C     1.447034   -0.918052    0.208579    0.263961    0.446565   -0.031503
N     0.191013   -1.522430    0.329193    0.191252    0.071033   -0.040117
C    -1.032846   -0.919460    0.200493   -0.170349   -0.384711    0.108792
N    -0.847826    0.567608   -0.018016   -0.139522   -0.342652    0.127422
C     0.559557    1.245564   -0.261472   -0.207752   -0.182152    0.115075
O    -2.171297   -1.303320    0.218438   -0.505558    0.284688   -0.084813
O     0.613906    2.393183   -0.571623    0.423036   -0.236404    0.019490
H     2.275872   -1.612978    0.357438    0.322657    0.530818    0.022817
H     0.189411   -2.530169    0.508519    0.793920    0.025717   -0.050240
H    -1.448023    0.819602   -0.823794   -0.027283   -0.588224   -0.047337
H     2.663626    0.804101   -0.213672   -0.075941    0.814134   -0.364354
H    -1.296498    1.050039    0.783216   -0.476819   -0.348910   -0.041086
13
* Frequency(13)  570.0057
C     1.678630    0.411114   -0.108281    0.118708    0.336355   -0.166866
C     1.473781   -0.872802    0.205386    0.263961    0.446565   -0.031503
N     0.210393   -1.515232    0.325128    0.191252    0.071033   -0.040117
C    -1.050107   -0.958442    0.211517   -0.170349   -0.384711    0.108792
N    -0.861963    0.532887   -0.005104   -0.139522   -0.342652    0.127422
C     0.538506    1.227107   -0.249811   -0.207752   -0.182152    0.115075
O    -2.222525   -1.274473    0.209844   -0.505558    0.284688   -0.084813
O     0.656772    2.369229   -0.569648    0.423036   -0.236404    0.019490
H     2.308567   -1.559190    0.359750    0.322657    0.530818    0.022817
H     0.269859   -2.527563    0.503428    0.793920    0.025717   -0.050240
H    -1.450787    0.759997   -0.828590   -0.027283   -0.588224   -0.047337
H     2.655931    0.886597   -0.250591   -0.075941    0.814134   -0.364354
H    -1.344814    1.014684    0.779052   -0.476819   -0.348910   -0.041086
13
* Frequency(13)  570.0057
C     1.687894    0.437361   -0.121302    0.118708    0.336355   -0.166866
C     1.494379   -0.837955    0.202928    0.263961    0.446565   -0.031503
N     0.225317   -1.509689    0.321997    0.191252    0.071033   -0.040117
C    -1.063400   -0.988463    0.220006   -0.170349   -0.384711    0.108792
N    -0.872851    0.506148    0.004839   -0.139522   -0.342652    0.127422
C     0.522294    1.212893   -0.240832   -0.207752   -0.182152    0.115075
O    -2.261976   -1.252258    0.203225   -0.505558    0.284688   -0.084813
O     0.689783    2.350781   -0.568127    0.423036   -0.236404    0.019490
H     2.333745   -1.517768    0.361530    0.322657    0.530818    0.022817
H     0.331812   -2.525556    0.499507    0.793920    0.025717   -0.050240
H    -1.452916    0.714096   -0.832284   -0.027283   -0.588224   -0.047337
H     2.650005    0.950127   -0.279023   -0.075941    0.814134   -0.364354
H    -1.382022    0.987457    0.775846   -0.476819   -0.348910   -0.041086
13
* Frequency(13)  570.0057
C     1.693388    0.452928   -0.129025    0.118708    0.336355   -0.166866
C     1.506596   -0.817287    0.201470    0.263961    0.446565   -0.031503
N     0.234168   -1.506401    0.320141    0.191252    0.071033   -0.040117
C    -1.071284   -1.006268    0.225042   -0.170349   -0.384711    0.108792
N    -0.879308    0.490290    0.010736   -0.139522   -0.342652    0.127422
C     0.512679    1.204462   -0.235506   -0.207752   -0.182152    0.115075
O    -2.285374   -1.239082    0.199300   -0.505558    0.284688   -0.084813
O     0.709362    2.339840   -0.567225    0.423036   -0.236404    0.019490
H     2.348678   -1.493201    0.362586    0.322657    0.530818    0.022817
H     0.368556   -2.524366    0.497182    0.793920    0.025717   -0.050240
H    -1.454179    0.686872   -0.834475   -0.027283   -0.588224   -0.047337
H     2.646491    0.987807   -0.295886   -0.075941    0.814134   -0.364354
H    -1.404090    0.971309    0.773945   -0.476819   -0.348910   -0.041086
13
* Frequency(13)  570.0057
C     1.694517    0.456128   -0.130612    0.118708    0.336355   -0.166866
C     1.509107   -0.813038    0.201170    0.263961    0.446565   -0.031503
N     0.235988   -1.505726    0.319759    0.191252    0.071033   -0.040117
C    -1.072905   -1.009928    0.226077   -0.170349   -0.384711    0.108792
N    -0.880635    0.487030    0.011948   -0.139522   -0.342652    0.127422
C     0.510702    1.202729   -0.234411   -0.207752   -0.182152    0.115075
O    -2.290184   -1.236373    0.198493   -0.505558    0.284688   -0.084813
O     0.713387    2.337591   -0.567039    0.423036   -0.236404    0.019490
H     2.351748   -1.488151    0.362803    0.322657    0.530818    0.022817
H     0.376109   -2.524121    0.496704    0.793920    0.025717   -0.050240
H    -1.454439    0.681275   -0.834925   -0.027283   -0.588224   -0.047337
H     2.645768    0.995553   -0.299353   -0.075941    0.814134   -0.364354
H    -1.408627    0.967989    0.773554   -0.476819   -0.348910   -0.041086
13
* Frequency(13)  570.0057
C     1.691160    0.446615   -0.125893    0.118708    0.336355   -0.166866
C     1.501641   -0.825668    0.202061    0.263961    0.446565   -0.031503
N     0.230579   -1.507735    0.320894    0.191252    0.071033   -0.040117
C    -1.068087   -0.999047    0.223000   -0.170349   -0.384711    0.108792
N    -0.876689    0.496721    0.008345   -0.139522   -0.342652    0.127422
C     0.516578    1.207881   -0.237666   -0.207752   -0.182152    0.115075
O    -2.275885   -1.244425    0.200892   -0.505558    0.284688   -0.084813
O     0.701422    2.344277   -0.567591    0.423036   -0.236404    0.019490
H     2.342622   -1.503164    0.362158    0.322657    0.530818    0.022817
H     0.353654   -2.524849    0.498125    0.793920    0.025717   -0.050240
H    -1.453667    0.697913   -0.833587   -0.027283   -0.588224   -0.047337
H     2.647916    0.972526   -0.289048   -0.075941    0.814134   -0.364354
H    -1.395141    0.977858    0.774716   -0.476819   -0.348910   -0.041086
13
* Frequency(13)  570.0057
C     1.683679    0.425419   -0.115377    0.118708    0.336355   -0.166866
C     1.485007   -0.853810    0.204047    0.263961    0.446565   -0.031503
N     0.218526   -1.512211    0.323422    0.191252    0.071033   -0.040117
C    -1.057352   -0.974804    0.216144   -0.170349   -0.384711    0.108792
N    -0.867897    0.518314    0.000315   -0.139522   -0.342652    0.127422
C     0.529670    1.219360   -0.244917   -0.207752   -0.182152    0.115075
O    -2.244026   -1.262366    0.206237   -0.505558    0.284688   -0.084813
O     0.674763    2.359175   -0.568819    0.423036   -0.236404    0.019490
H     2.322289   -1.536615    0.360720    0.322657    0.530818    0.022817
H     0.303624   -2.526469    0.501291    0.793920    0.025717   -0.050240
H    -1.451948    0.734981   -0.830604   -0.027283   -0.588224   -0.047337
H     2.652702    0.921222   -0.266087   -0.075941    0.814134   -0.364354
H    -1.365093    0.999845    0.777305   -0.476819   -0.348910   -0.041086
13
* Frequency(13)  570.0057
C     1.672886    0.394837   -0.100205    0.118708    0.336355   -0.166866
C     1.461007   -0.894412    0.206911    0.263961    0.446565   -0.031503
N     0.201137   -1.518670    0.327069    0.191252    0.071033   -0.040117
C    -1.041863   -0.939825    0.206252   -0.170349   -0.384711    0.108792
N    -0.855211    0.549469   -0.011271   -0.139522   -0.342652    0.127422
C     0.548559    1.235921   -0.255380   -0.207752   -0.182152    0.115075
O    -2.198060   -1.288250    0.213948   -0.505558    0.284688   -0.084813
O     0.636300    2.380669   -0.570591    0.423036   -0.236404    0.019490
H     2.292953   -1.584878    0.358646    0.322657    0.530818    0.022817
H     0.231439   -2.528807    0.505859    0.793920    0.025717   -0.050240
H    -1.449467    0.788463   -0.826300   -0.027283   -0.588224   -0.047337
H     2.659606    0.847199   -0.232959   -0.075941    0.814134   -0.364354
H    -1.321739    1.031568    0.781041   -0.476819   -0.348910   -0.041086
13
* Frequency(13)  570.0057
C     1.659950    0.358183   -0.082021    0.118708    0.336355   -0.166866
C     1.432243   -0.943076    0.210344    0.263961    0.446565   -0.031503
N     0.180296   -1.526410    0.331441    0.191252    0.071033   -0.040117
C    -1.023300   -0.897902    0.194397   -0.170349   -0.384711    0.108792
N    -0.840007    0.586809   -0.025156   -0.139522   -0.342652    0.127422
C     0.571199    1.255771   -0.267920   -0.207752   -0.182152    0.115075
O    -2.142968   -1.319273    0.223190   -0.505558    0.284688   -0.084813
O     0.590200    2.406430   -0.572715    0.423036   -0.236404    0.019490
H     2.257792   -1.642723    0.356159    0.322657    0.530818    0.022817
H     0.144923   -2.531610    0.511334    0.793920    0.025717   -0.050240
H    -1.446494    0.852564   -0.821141   -0.027283   -0.588224   -0.047337
H     2.667882    0.758480   -0.193254   -0.075941    0.814134   -0.364354
H    -1.269779    1.069590    0.785518   -0.476819   -0.348910   -0.041086
13
* Frequency(13)  570.0057
C     1.646273    0.319430   -0.062796    0.118708    0.336355   -0.166866
C     1.401830   -0.994528    0.213974    0.263961    0.446565   -0.031503
N     0.158261   -1.534594    0.336063    0.191252    0.071033   -0.040117
C    -1.003673   -0.853577    0.181862   -0.170349   -0.384711    0.108792
N    -0.823932    0.626288   -0.039837   -0.139522   -0.342652    0.127422
C     0.595135    1.276758   -0.281179   -0.207752   -0.182152    0.115075
O    -2.084719   -1.352074    0.232962   -0.505558    0.284688   -0.084813
O     0.541460    2.433668   -0.574960    0.423036   -0.236404    0.019490
H     2.220616   -1.703882    0.353530    0.322657    0.530818    0.022817
H     0.053450   -2.534573    0.517123    0.793920    0.025717   -0.050240
H    -1.443351    0.920337   -0.815687   -0.027283   -0.588224   -0.047337
H     2.676632    0.664679   -0.151275   -0.075941    0.814134   -0.364354
H    -1.214842    1.109791    0.790252   -0.476819   -0.348910   -0.041086
13
* Frequency(13)  570.0057
C     1.633337    0.282776   -0.044612    0.118708    0.336355   -0.166866
C     1.373065   -1.043191    0.217407    0.263961    0.446565   -0.031503
N     0.137419   -1.542335    0.340435    0.191252    0.071033   -0.040117
C    -0.985109   -0.811654    0.170007   -0.170349   -0.384711    0.108792
N    -0.808728    0.663628   -0.053723   -0.139522   -0.342652    0.127422
C     0.617775    1.296608   -0.293719   -0.207752   -0.182152    0.115075
O    -2.029627   -1.383097    0.242205   -0.505558    0.284688   -0.084813
O     0.495360    2.459430   -0.577084    0.423036   -0.236404    0.019490
H     2.185455   -1.761727    0.351044    0.322657    0.530818    0.022817
H    -0.033066   -2.537375    0.522597    0.793920    0.025717   -0.050240
H    -1.440378    0.984438   -0.810529   -0.027283   -0.588224   -0.047337
H     2.684907    0.575960   -0.111570   -0.075941    0.814134   -0.364354
H    -1.162881    1.147813    0.794729   -0.476819   -0.348910   -0.041086
13
* Frequency(13)  570.0057
C     1.622544    0.252194   -0.029440    0.118708    0.336355   -0.166866
C     1.349066   -1.083794    0.220271    0.263961    0.446565   -0.031503
N     0.120030   -1.548794    0.344082    0.191252    0.071033   -0.040117
C    -0.969621   -0.776675    0.160115   -0.170349   -0.384711    0.108792
N    -0.796042    0.694782   -0.065308   -0.139522   -0.342652    0.127422
C     0.636664    1.313169   -0.304182   -0.207752   -0.182152    0.115075
O    -1.983661   -1.408982    0.249916   -0.505558    0.284688   -0.084813
O     0.456897    2.480924   -0.578856    0.423036   -0.236404    0.019490
H     2.156118   -1.809990    0.348969    0.322657    0.530818    0.022817
H    -0.105251   -2.539714    0.527165    0.793920    0.025717   -0.050240
H    -1.437897    1.037920   -0.806225   -0.027283   -0.588224   -0.047337
H     2.691812    0.501937   -0.078442   -0.075941    0.814134   -0.364354
H    -1.119528    1.179536    0.798465   -0.476819   -0.348910   -0.041086
13
* Frequency(13)  570.0057
C     1.615063    0.230998   -0.018925    0.118708    0.336355   -0.166866
C     1.332431   -1.111935    0.222256    0.263961    0.446565   -0.031503
N     0.107978   -1.553270    0.346610    0.191252    0.071033   -0.040117
C    -0.958886   -0.752431    0.153259   -0.170349   -0.384711    0.108792
N    -0.787250    0.716375   -0.073338   -0.139522   -0.342652    0.127422
C     0.649756    1.324648   -0.311434   -0.207752   -0.182152    0.115075
O    -1.951802   -1.426922    0.255261   -0.505558    0.284688   -0.084813
O     0.430238    2.495822   -0.580085    0.423036   -0.236404    0.019490
H     2.135785   -1.843441    0.347531    0.322657    0.530818    0.022817
H    -0.155281   -2.541334    0.530331    0.793920    0.025717   -0.050240
H    -1.436178    1.074989   -0.803241   -0.027283   -0.588224   -0.047337
H     2.696597    0.450632   -0.055482   -0.075941    0.814134   -0.364354
H    -1.089480    1.201524    0.801054   -0.476819   -0.348910   -0.041086
13
* Frequency(13)  570.0057
C     1.611706    0.221484   -0.014205    0.118708    0.336355   -0.166866
C     1.324966   -1.124566    0.223147    0.263961    0.446565   -0.031503
N     0.102569   -1.555279    0.347745    0.191252    0.071033   -0.040117
C    -0.954068   -0.741550    0.150182   -0.170349   -0.384711    0.108792
N    -0.783304    0.726067   -0.076942   -0.139522   -0.342652    0.127422
C     0.655632    1.329800   -0.314688   -0.207752   -0.182152    0.115075
O    -1.937503   -1.434974    0.257659   -0.505558    0.284688   -0.084813
O     0.418273    2.502508   -0.580636    0.423036   -0.236404    0.019490
H     2.126659   -1.858454    0.346886    0.322657    0.530818    0.022817
H    -0.177736   -2.542062    0.531752    0.793920    0.025717   -0.050240
H    -1.435406    1.091626   -0.801903   -0.027283   -0.588224   -0.047337
H     2.698745    0.427606   -0.045176   -0.075941    0.814134   -0.364354
H    -1.075994    1.211392    0.802216   -0.476819   -0.348910   -0.041086
13
* Frequency(13)  570.0057
C     1.612835    0.224685   -0.015793    0.118708    0.336355   -0.166866
C     1.327477   -1.120317    0.222847    0.263961    0.446565   -0.031503
N     0.104388   -1.554603    0.347363    0.191252    0.071033   -0.040117
C    -0.955689   -0.745211    0.151217   -0.170349   -0.384711    0.108792
N    -0.784631    0.722807   -0.075730   -0.139522   -0.342652    0.127422
C     0.653655    1.328067   -0.313593   -0.207752   -0.182152    0.115075
O    -1.942313   -1.432265    0.256852   -0.505558    0.284688   -0.084813
O     0.422298    2.500259   -0.580450    0.423036   -0.236404    0.019490
H     2.129729   -1.853404    0.347103    0.322657    0.530818    0.022817
H    -0.170183   -2.541817    0.531274    0.793920    0.025717   -0.050240
H    -1.435666    1.086029   -0.802353   -0.027283   -0.588224   -0.047337
H     2.698023    0.435352   -0.048643   -0.075941    0.814134   -0.364354
H    -1.080530    1.208072    0.801825   -0.476819   -0.348910   -0.041086
13
* Frequency(13)  570.0057
C     1.618329    0.240252   -0.023515    0.118708    0.336355   -0.166866
C     1.339694   -1.099649    0.221389    0.263961    0.446565   -0.031503
N     0.113240   -1.551316    0.345506    0.191252    0.071033   -0.040117
C    -0.963573   -0.763016    0.156252   -0.170349   -0.384711    0.108792
N    -0.791088    0.706948   -0.069832   -0.139522   -0.342652    0.127422
C     0.644040    1.319636   -0.308268   -0.207752   -0.182152    0.115075
O    -1.965711   -1.419089    0.252927   -0.505558    0.284688   -0.084813
O     0.441877    2.489317   -0.579548    0.423036   -0.236404    0.019490
H     2.144663   -1.828837    0.348159    0.322657    0.530818    0.022817
H    -0.133439   -2.540627    0.528949    0.793920    0.025717   -0.050240
H    -1.436928    1.058805   -0.804544   -0.027283   -0.588224   -0.047337
H     2.694508    0.473031   -0.065506   -0.075941    0.814134   -0.364354
H    -1.102598    1.191924    0.799923   -0.476819   -0.348910   -0.041086
13
* Frequency(13)  570.0057
C     1.627592    0.266499   -0.036537    0.118708    0.336355   -0.166866
C     1.360292   -1.064802    0.218931    0.263961    0.446565   -0.031503
N     0.128164   -1.545773    0.342376    0.191252    0.071033   -0.040117
C    -0.976866   -0.793036    0.164742   -0.170349   -0.384711    0.108792
N    -0.801976    0.680210   -0.059889   -0.139522   -0.342652    0.127422
C     0.627828    1.305422   -0.299288   -0.207752   -0.182152    0.115075
O    -2.005161   -1.396874    0.246309   -0.505558    0.284688   -0.084813
O     0.474888    2.470870   -0.578028    0.423036   -0.236404    0.019490
H     2.169841   -1.787415    0.349940    0.322657    0.530818    0.022817
H    -0.071486   -2.538620    0.525029    0.793920    0.025717   -0.050240
H    -1.439057    1.012904   -0.808238   -0.027283   -0.588224   -0.047337
H     2.688582    0.536561   -0.093938   -0.075941    0.814134   -0.364354
H    -1.139806    1.164697    0.796717   -0.476819   -0.348910   -0.041086
13
* Frequency(13)  570.0057
C     1.639621    0.300581   -0.053445    0.118708    0.336355   -0.166866
C     1.387039   -1.019552    0.215739    0.263961    0.446565   -0.031503
N     0.147544   -1.538575    0.338311    0.191252    0.071033   -0.040117
C    -0.994127   -0.832019    0.175766   -0.170349   -0.384711    0.108792
N    -0.816114    0.645489   -0.046978   -0.139522   -0.342652    0.127422
C     0.606777    1.286965   -0.287627   -0.207752   -0.182152    0.115075
O    -2.056389   -1.368027    0.237715   -0.505558    0.284688   -0.084813
O     0.517754    2.446915   -0.576053    0.423036   -0.236404    0.019490
H     2.202536   -1.733627    0.352252    0.322657    0.530818    0.022817
H     0.008962   -2.536014    0.519938    0.793920    0.025717   -0.050240
H    -1.441822    0.953299   -0.813034   -0.027283   -0.588224   -0.047337
H     2.680887    0.619057   -0.130858   -0.075941    0.814134   -0.364354
H    -1.188122    1.129342    0.792554   -0.476819   -0.348910   -0.041086
13
* Frequency(13)  570.0057
C     1.653111    0.338806   -0.072409    0.118708    0.336355   -0.166866
C     1.417036   -0.968802    0.212159    0.263961    0.446565   -0.031503
N     0.169278   -1.530502    0.333752    0.191252    0.071033   -0.040117
C    -1.013486   -0.875739    0.188129   -0.170349   -0.384711    0.108792
N    -0.831970    0.606548   -0.032497   -0.139522   -0.342652    0.127422
C     0.583167    1.266264   -0.274550   -0.207752   -0.182152    0.115075
O    -2.113843   -1.335674    0.228076   -0.505558    0.284688   -0.084813
O     0.565830    2.420049   -0.573838    0.423036   -0.236404    0.019490
H     2.239204   -1.673303    0.354845    0.322657    0.530818    0.022817
H     0.099186   -2.533091    0.514228    0.793920    0.025717   -0.050240
H    -1.444922    0.886451   -0.818414   -0.027283   -0.588224   -0.047337
H     2.672257    0.711579   -0.172265   -0.075941    0.814134   -0.364354
H    -1.242310    1.089691    0.787885   -0.476819   -0.348910   -0.041086
