13
* (null), Energy   -1000.0000000
C     1.653111    0.338806   -0.072409   -0.041107    0.015318   -0.003122
C     1.417036   -0.968802    0.212159    0.127150    0.020969   -0.005655
N     0.169278   -1.530502    0.333752   -0.191514   -0.024596    0.003546
C    -1.013486   -0.875739    0.188129   -0.020842    0.046893   -0.004612
N    -0.831970    0.606548   -0.032497   -0.078921    0.082986   -0.000467
C     0.583167    1.266264   -0.274550    0.002482    0.015790   -0.003568
O    -2.113843   -1.335674    0.228076    0.041939   -0.001264    0.001662
O     0.565830    2.420049   -0.573838   -0.000676   -0.015437    0.003798
H     2.239204   -1.673303    0.354845    0.039694   -0.097213    0.022547
H     0.099186   -2.533091    0.514228    0.846830   -0.088591    0.019960
H    -1.444922    0.886451   -0.818414    0.604611   -0.767175   -0.783312
H     2.672257    0.711579   -0.172265    0.024161   -0.158562    0.034174
H    -1.242310    1.089691    0.787885    0.781227   -0.614039    0.779251
13
* Frequency(29) 1510.6163
C     1.648440    0.340547   -0.072763   -0.041107    0.015318   -0.003122
C     1.431486   -0.966419    0.211516    0.127150    0.020969   -0.005655
N     0.147514   -1.533298    0.334155   -0.191514   -0.024596    0.003546
C    -1.015855   -0.870410    0.187605   -0.020842    0.046893   -0.004612
N    -0.840939    0.615979   -0.032550   -0.078921    0.082986   -0.000467
C     0.583449    1.268059   -0.274955    0.002482    0.015790   -0.003568
O    -2.109077   -1.335817    0.228265    0.041939   -0.001264    0.001662
O     0.565753    2.418295   -0.573406   -0.000676   -0.015437    0.003798
H     2.243715   -1.684350    0.357407    0.039694   -0.097213    0.022547
H     0.195424   -2.543159    0.516497    0.846830   -0.088591    0.019960
H    -1.376211    0.799265   -0.907433    0.604611   -0.767175   -0.783312
H     2.675003    0.693560   -0.168381    0.024161   -0.158562    0.034174
H    -1.153528    1.019908    0.876443    0.781227   -0.614039    0.779251
13
* Frequency(29) 1510.6163
C     1.644274    0.342099   -0.073080   -0.041107    0.015318   -0.003122
C     1.444370   -0.964294    0.210943    0.127150    0.020969   -0.005655
N     0.128108   -1.535790    0.334514   -0.191514   -0.024596    0.003546
C    -1.017967   -0.865659    0.187138   -0.020842    0.046893   -0.004612
N    -0.848936    0.624388   -0.032597   -0.078921    0.082986   -0.000467
C     0.583701    1.269659   -0.275316    0.002482    0.015790   -0.003568
O    -2.104828   -1.335945    0.228433    0.041939   -0.001264    0.001662
O     0.565685    2.416731   -0.573021   -0.000676   -0.015437    0.003798
H     2.247737   -1.694201    0.359692    0.039694   -0.097213    0.022547
H     0.281233   -2.552136    0.518519    0.846830   -0.088591    0.019960
H    -1.314946    0.721528   -0.986806    0.604611   -0.767175   -0.783312
H     2.677451    0.677492   -0.164918    0.024161   -0.158562    0.034174
H    -1.074366    0.957688    0.955404    0.781227   -0.614039    0.779251
13
* Frequency(29) 1510.6163
C     1.641066    0.343295   -0.073323   -0.041107    0.015318   -0.003122
C     1.454292   -0.962658    0.210502    0.127150    0.020969   -0.005655
N     0.113163   -1.537709    0.334791   -0.191514   -0.024596    0.003546
C    -1.019593   -0.861999    0.186778   -0.020842    0.046893   -0.004612
N    -0.855094    0.630864   -0.032634   -0.078921    0.082986   -0.000467
C     0.583894    1.270891   -0.275595    0.002482    0.015790   -0.003568
O    -2.101555   -1.336044    0.228563    0.041939   -0.001264    0.001662
O     0.565632    2.415526   -0.572725   -0.000676   -0.015437    0.003798
H     2.250835   -1.701787    0.361451    0.039694   -0.097213    0.022547
H     0.347315   -2.559049    0.520077    0.846830   -0.088591    0.019960
H    -1.267766    0.661662   -1.047931    0.604611   -0.767175   -0.783312
H     2.679336    0.665119   -0.162251    0.024161   -0.158562    0.034174
H    -1.013404    0.909772    1.016212    0.781227   -0.614039    0.779251
13
* Frequency(29) 1510.6163
C     1.639164    0.344004   -0.073468   -0.041107    0.015318   -0.003122
C     1.460177   -0.961687    0.210240    0.127150    0.020969   -0.005655
N     0.104300   -1.538848    0.334955   -0.191514   -0.024596    0.003546
C    -1.020558   -0.859829    0.186565   -0.020842    0.046893   -0.004612
N    -0.858747    0.634705   -0.032655   -0.078921    0.082986   -0.000467
C     0.584009    1.271622   -0.275760    0.002482    0.015790   -0.003568
O    -2.099614   -1.336103    0.228640    0.041939   -0.001264    0.001662
O     0.565600    2.414812   -0.572549   -0.000676   -0.015437    0.003798
H     2.252672   -1.706286    0.362495    0.039694   -0.097213    0.022547
H     0.386508   -2.563149    0.521000    0.846830   -0.088591    0.019960
H    -1.239784    0.626156   -1.084184    0.604611   -0.767175   -0.783312
H     2.680454    0.657781   -0.160670    0.024161   -0.158562    0.034174
H    -0.977248    0.881353    1.052277    0.781227   -0.614039    0.779251
13
* Frequency(29) 1510.6163
C     1.638773    0.344149   -0.073497   -0.041107    0.015318   -0.003122
C     1.461387   -0.961488    0.210186    0.127150    0.020969   -0.005655
N     0.102477   -1.539082    0.334989   -0.191514   -0.024596    0.003546
C    -1.020756   -0.859383    0.186521   -0.020842    0.046893   -0.004612
N    -0.859498    0.635494   -0.032660   -0.078921    0.082986   -0.000467
C     0.584033    1.271772   -0.275794    0.002482    0.015790   -0.003568
O    -2.099215   -1.336115    0.228656    0.041939   -0.001264    0.001662
O     0.565594    2.414665   -0.572513   -0.000676   -0.015437    0.003798
H     2.253049   -1.707211    0.362709    0.039694   -0.097213    0.022547
H     0.394565   -2.563992    0.521190    0.846830   -0.088591    0.019960
H    -1.234031    0.618856   -1.091637    0.604611   -0.767175   -0.783312
H     2.680684    0.656272   -0.160345    0.024161   -0.158562    0.034174
H    -0.969815    0.875511    1.059691    0.781227   -0.614039    0.779251
13
* Frequency(29) 1510.6163
C     1.639936    0.343716   -0.073409   -0.041107    0.015318   -0.003122
C     1.457790   -0.962081    0.210346    0.127150    0.020969   -0.005655
N     0.107894   -1.538386    0.334888   -0.191514   -0.024596    0.003546
C    -1.020166   -0.860709    0.186651   -0.020842    0.046893   -0.004612
N    -0.857265    0.633147   -0.032647   -0.078921    0.082986   -0.000467
C     0.583963    1.271325   -0.275693    0.002482    0.015790   -0.003568
O    -2.100401   -1.336079    0.228609    0.041939   -0.001264    0.001662
O     0.565613    2.415101   -0.572620   -0.000676   -0.015437    0.003798
H     2.251927   -1.704461    0.362072    0.039694   -0.097213    0.022547
H     0.370613   -2.561487    0.520626    0.846830   -0.088591    0.019960
H    -1.251132    0.640555   -1.069482    0.604611   -0.767175   -0.783312
H     2.680001    0.660757   -0.161311    0.024161   -0.158562    0.034174
H    -0.991911    0.892878    1.037651    0.781227   -0.614039    0.779251
13
* Frequency(29) 1510.6163
C     1.642526    0.342751   -0.073212   -0.041107    0.015318   -0.003122
C     1.449778   -0.963402    0.210703    0.127150    0.020969   -0.005655
N     0.119963   -1.536836    0.334665   -0.191514   -0.024596    0.003546
C    -1.018853   -0.863664    0.186942   -0.020842    0.046893   -0.004612
N    -0.852292    0.627917   -0.032617   -0.078921    0.082986   -0.000467
C     0.583806    1.270330   -0.275468    0.002482    0.015790   -0.003568
O    -2.103044   -1.335999    0.228504    0.041939   -0.001264    0.001662
O     0.565656    2.416074   -0.572860   -0.000676   -0.015437    0.003798
H     2.249425   -1.698335    0.360651    0.039694   -0.097213    0.022547
H     0.317248   -2.555904    0.519368    0.846830   -0.088591    0.019960
H    -1.289233    0.688900   -1.020119    0.604611   -0.767175   -0.783312
H     2.678478    0.670749   -0.163465    0.024161   -0.158562    0.034174
H    -1.041142    0.931573    0.988545    0.781227   -0.614039    0.779251
13
* Frequency(29) 1510.6163
C     1.646264    0.341358   -0.072929   -0.041107    0.015318   -0.003122
C     1.438217   -0.965309    0.211217    0.127150    0.020969   -0.005655
N     0.137376   -1.534600    0.334342   -0.191514   -0.024596    0.003546
C    -1.016958   -0.867928    0.187361   -0.020842    0.046893   -0.004612
N    -0.845116    0.620372   -0.032575   -0.078921    0.082986   -0.000467
C     0.583581    1.268895   -0.275144    0.002482    0.015790   -0.003568
O    -2.106857   -1.335884    0.228353    0.041939   -0.001264    0.001662
O     0.565717    2.417478   -0.573205   -0.000676   -0.015437    0.003798
H     2.245816   -1.689496    0.358601    0.039694   -0.097213    0.022547
H     0.240253   -2.547849    0.517553    0.846830   -0.088591    0.019960
H    -1.344205    0.758653   -0.948899    0.604611   -0.767175   -0.783312
H     2.676282    0.685166   -0.166572    0.024161   -0.158562    0.034174
H    -1.112172    0.987403    0.917694    0.781227   -0.614039    0.779251
13
* Frequency(29) 1510.6163
C     1.650743    0.339689   -0.072588   -0.041107    0.015318   -0.003122
C     1.424361   -0.967594    0.211833    0.127150    0.020969   -0.005655
N     0.158246   -1.531919    0.333956   -0.191514   -0.024596    0.003546
C    -1.014687   -0.873038    0.187864   -0.020842    0.046893   -0.004612
N    -0.836516    0.611329   -0.032524   -0.078921    0.082986   -0.000467
C     0.583310    1.267174   -0.274755    0.002482    0.015790   -0.003568
O    -2.111427   -1.335746    0.228172    0.041939   -0.001264    0.001662
O     0.565791    2.419160   -0.573619   -0.000676   -0.015437    0.003798
H     2.241491   -1.678903    0.356144    0.039694   -0.097213    0.022547
H     0.147971   -2.538195    0.515378    0.846830   -0.088591    0.019960
H    -1.410092    0.842255   -0.863539    0.604611   -0.767175   -0.783312
H     2.673649    0.702445   -0.170296    0.024161   -0.158562    0.034174
H    -1.197305    1.054317    0.832776    0.781227   -0.614039    0.779251
13
* Frequency(29) 1510.6163
C     1.655479    0.337924   -0.072229   -0.041107    0.015318   -0.003122
C     1.409712   -0.970010    0.212485    0.127150    0.020969   -0.005655
N     0.180311   -1.529085    0.333548   -0.191514   -0.024596    0.003546
C    -1.012286   -0.878441    0.188395   -0.020842    0.046893   -0.004612
N    -0.827423    0.601768   -0.032470   -0.078921    0.082986   -0.000467
C     0.583024    1.265355   -0.274344    0.002482    0.015790   -0.003568
O    -2.116259   -1.335601    0.227981    0.041939   -0.001264    0.001662
O     0.565869    2.420939   -0.574056   -0.000676   -0.015437    0.003798
H     2.236917   -1.667702    0.353546    0.039694   -0.097213    0.022547
H     0.050402   -2.527988    0.513079    0.846830   -0.088591    0.019960
H    -1.479753    0.930646   -0.773289    0.604611   -0.767175   -0.783312
H     2.670865    0.720714   -0.174233    0.024161   -0.158562    0.034174
H    -1.287315    1.125064    0.742994    0.781227   -0.614039    0.779251
13
* Frequency(29) 1510.6163
C     1.659959    0.336255   -0.071889   -0.041107    0.015318   -0.003122
C     1.395856   -0.972295    0.213101    0.127150    0.020969   -0.005655
N     0.201181   -1.526405    0.333161   -0.191514   -0.024596    0.003546
C    -1.010014   -0.883551    0.188898   -0.020842    0.046893   -0.004612
N    -0.818823    0.592724   -0.032419   -0.078921    0.082986   -0.000467
C     0.582754    1.263634   -0.273955    0.002482    0.015790   -0.003568
O    -2.120830   -1.335463    0.227799    0.041939   -0.001264    0.001662
O     0.565942    2.422621   -0.574470   -0.000676   -0.015437    0.003798
H     2.232592   -1.657109    0.351089    0.039694   -0.097213    0.022547
H    -0.041880   -2.518334    0.510903    0.846830   -0.088591    0.019960
H    -1.545639    1.014248   -0.687929    0.604611   -0.767175   -0.783312
H     2.668232    0.737993   -0.177957    0.024161   -0.158562    0.034174
H    -1.372448    1.191978    0.658076    0.781227   -0.614039    0.779251
13
* Frequency(29) 1510.6163
C     1.663697    0.334862   -0.071605   -0.041107    0.015318   -0.003122
C     1.384295   -0.974201    0.213615    0.127150    0.020969   -0.005655
N     0.218594   -1.524169    0.332839   -0.191514   -0.024596    0.003546
C    -1.008119   -0.887815    0.189317   -0.020842    0.046893   -0.004612
N    -0.811647    0.585179   -0.032376   -0.078921    0.082986   -0.000467
C     0.582528    1.262199   -0.273631    0.002482    0.015790   -0.003568
O    -2.124643   -1.335348    0.227648    0.041939   -0.001264    0.001662
O     0.566004    2.424024   -0.574816   -0.000676   -0.015437    0.003798
H     2.228982   -1.648270    0.349039    0.039694   -0.097213    0.022547
H    -0.118875   -2.510279    0.509089    0.846830   -0.088591    0.019960
H    -1.600612    1.084001   -0.616709    0.604611   -0.767175   -0.783312
H     2.666035    0.752410   -0.181064    0.024161   -0.158562    0.034174
H    -1.443479    1.247808    0.587225    0.781227   -0.614039    0.779251
13
* Frequency(29) 1510.6163
C     1.666287    0.333897   -0.071408   -0.041107    0.015318   -0.003122
C     1.376282   -0.975523    0.213971    0.127150    0.020969   -0.005655
N     0.230663   -1.522619    0.332615   -0.191514   -0.024596    0.003546
C    -1.006806   -0.890770    0.189608   -0.020842    0.046893   -0.004612
N    -0.806674    0.579950   -0.032347   -0.078921    0.082986   -0.000467
C     0.582372    1.261204   -0.273406    0.002482    0.015790   -0.003568
O    -2.127286   -1.335268    0.227544    0.041939   -0.001264    0.001662
O     0.566047    2.424997   -0.575055   -0.000676   -0.015437    0.003798
H     2.226481   -1.642144    0.347618    0.039694   -0.097213    0.022547
H    -0.172240   -2.504696    0.507831    0.846830   -0.088591    0.019960
H    -1.638713    1.132346   -0.567346    0.604611   -0.767175   -0.783312
H     2.664513    0.762402   -0.183218    0.024161   -0.158562    0.034174
H    -1.492710    1.286503    0.538119    0.781227   -0.614039    0.779251
13
* Frequency(29) 1510.6163
C     1.667450    0.333464   -0.071320   -0.041107    0.015318   -0.003122
C     1.372686   -0.976116    0.214131    0.127150    0.020969   -0.005655
N     0.236079   -1.521923    0.332515   -0.191514   -0.024596    0.003546
C    -1.006217   -0.892096    0.189738   -0.020842    0.046893   -0.004612
N    -0.804441    0.577602   -0.032334   -0.078921    0.082986   -0.000467
C     0.582302    1.260757   -0.273305    0.002482    0.015790   -0.003568
O    -2.128472   -1.335233    0.227497    0.041939   -0.001264    0.001662
O     0.566066    2.425434   -0.575162   -0.000676   -0.015437    0.003798
H     2.225358   -1.639394    0.346980    0.039694   -0.097213    0.022547
H    -0.196192   -2.502191    0.507266    0.846830   -0.088591    0.019960
H    -1.655813    1.154045   -0.545191    0.604611   -0.767175   -0.783312
H     2.663829    0.766886   -0.184184    0.024161   -0.158562    0.034174
H    -1.514806    1.303870    0.516079    0.781227   -0.614039    0.779251
13
* Frequency(29) 1510.6163
C     1.667059    0.333609   -0.071349   -0.041107    0.015318   -0.003122
C     1.373896   -0.975916    0.214077    0.127150    0.020969   -0.005655
N     0.234257   -1.522157    0.332549   -0.191514   -0.024596    0.003546
C    -1.006415   -0.891650    0.189694   -0.020842    0.046893   -0.004612
N    -0.805192    0.578392   -0.032338   -0.078921    0.082986   -0.000467
C     0.582325    1.260907   -0.273339    0.002482    0.015790   -0.003568
O    -2.128073   -1.335245    0.227512    0.041939   -0.001264    0.001662
O     0.566059    2.425287   -0.575126   -0.000676   -0.015437    0.003798
H     2.225736   -1.640319    0.347195    0.039694   -0.097213    0.022547
H    -0.188135   -2.503033    0.507456    0.846830   -0.088591    0.019960
H    -1.650061    1.146745   -0.552644    0.604611   -0.767175   -0.783312
H     2.664059    0.765378   -0.183859    0.024161   -0.158562    0.034174
H    -1.507373    1.298028    0.523493    0.781227   -0.614039    0.779251
13
* Frequency(29) 1510.6163
C     1.665156    0.334318   -0.071494   -0.041107    0.015318   -0.003122
C     1.379781   -0.974946    0.213816    0.127150    0.020969   -0.005655
N     0.225394   -1.523296    0.332713   -0.191514   -0.024596    0.003546
C    -1.007379   -0.889479    0.189481   -0.020842    0.046893   -0.004612
N    -0.808845    0.582233   -0.032360   -0.078921    0.082986   -0.000467
C     0.582440    1.261638   -0.273504    0.002482    0.015790   -0.003568
O    -2.126132   -1.335303    0.227589    0.041939   -0.001264    0.001662
O     0.566028    2.424572   -0.574950   -0.000676   -0.015437    0.003798
H     2.227573   -1.644818    0.348238    0.039694   -0.097213    0.022547
H    -0.148942   -2.507134    0.508380    0.846830   -0.088591    0.019960
H    -1.622078    1.111239   -0.588897    0.604611   -0.767175   -0.783312
H     2.665177    0.758039   -0.182278    0.024161   -0.158562    0.034174
H    -1.471216    1.269609    0.559558    0.781227   -0.614039    0.779251
13
* Frequency(29) 1510.6163
C     1.661948    0.335514   -0.071737   -0.041107    0.015318   -0.003122
C     1.389703   -0.973310    0.213374    0.127150    0.020969   -0.005655
N     0.210449   -1.525215    0.332990   -0.191514   -0.024596    0.003546
C    -1.009006   -0.885820    0.189121   -0.020842    0.046893   -0.004612
N    -0.815003    0.588708   -0.032396   -0.078921    0.082986   -0.000467
C     0.582634    1.262870   -0.273783    0.002482    0.015790   -0.003568
O    -2.122859   -1.335402    0.227719    0.041939   -0.001264    0.001662
O     0.565975    2.423368   -0.574654   -0.000676   -0.015437    0.003798
H     2.230671   -1.652404    0.349998    0.039694   -0.097213    0.022547
H    -0.082860   -2.514047    0.509938    0.846830   -0.088591    0.019960
H    -1.574898    1.051374   -0.650022    0.604611   -0.767175   -0.783312
H     2.667063    0.745666   -0.179611    0.024161   -0.158562    0.034174
H    -1.410254    1.221693    0.620366    0.781227   -0.614039    0.779251
13
* Frequency(29) 1510.6163
C     1.657783    0.337066   -0.072054   -0.041107    0.015318   -0.003122
C     1.402587   -0.971185    0.212801    0.127150    0.020969   -0.005655
N     0.191043   -1.527707    0.333349   -0.191514   -0.024596    0.003546
C    -1.011118   -0.881069    0.188654   -0.020842    0.046893   -0.004612
N    -0.823001    0.597117   -0.032444   -0.078921    0.082986   -0.000467
C     0.582885    1.264470   -0.274144    0.002482    0.015790   -0.003568
O    -2.118609   -1.335530    0.227887    0.041939   -0.001264    0.001662
O     0.565907    2.421804   -0.574269   -0.000676   -0.015437    0.003798
H     2.234693   -1.662255    0.352282    0.039694   -0.097213    0.022547
H     0.002949   -2.523024    0.511960    0.846830   -0.088591    0.019960
H    -1.513633    0.973636   -0.729395    0.604611   -0.767175   -0.783312
H     2.669511    0.729599   -0.176148    0.024161   -0.158562    0.034174
H    -1.331093    1.159473    0.699327    0.781227   -0.614039    0.779251
13
* Frequency(29) 1510.6163
C     1.653111    0.338806   -0.072409   -0.041107    0.015318   -0.003122
C     1.417036   -0.968802    0.212159    0.127150    0.020969   -0.005655
N     0.169278   -1.530502    0.333752   -0.191514   -0.024596    0.003546
C    -1.013486   -0.875739    0.188129   -0.020842    0.046893   -0.004612
N    -0.831970    0.606548   -0.032497   -0.078921    0.082986   -0.000467
C     0.583167    1.266264   -0.274550    0.002482    0.015790   -0.003568
O    -2.113843   -1.335674    0.228076    0.041939   -0.001264    0.001662
O     0.565830    2.420049   -0.573838   -0.000676   -0.015437    0.003798
H     2.239204   -1.673303    0.354845    0.039694   -0.097213    0.022547
H     0.099186   -2.533091    0.514228    0.846830   -0.088591    0.019960
H    -1.444922    0.886451   -0.818414    0.604611   -0.767175   -0.783312
H     2.672257    0.711579   -0.172265    0.024161   -0.158562    0.034174
H    -1.242310    1.089691    0.787885    0.781227   -0.614039    0.779251
