13
* (null), Energy   -1000.0000000
C     1.365855    0.533997   -0.017795    0.000364   -0.000210   -0.009320
C     1.281863   -0.788655    0.093257    0.004138   -0.014710   -0.177653
N    -0.021011   -1.450395    0.118437    0.000800   -0.004582   -0.056007
C    -1.289878   -0.622329    0.007801   -0.006260    0.019940    0.248248
N    -1.064188    0.706802   -0.097341   -0.003815    0.008823    0.110938
C     0.168081    1.391376   -0.119566    0.007902   -0.024794   -0.298617
O    -2.334795   -1.198357    0.024143    0.002225   -0.004750   -0.065994
O     0.193513    2.595440   -0.217241   -0.002145    0.007479    0.096628
H     2.123010   -1.478478    0.173803   -0.025746    0.090888    1.047988
H    -0.114939   -2.012404    0.984263    0.369001    0.193004    0.111104
H    -1.901448    1.289086   -0.172072    0.025054   -0.081133   -0.913643
H     2.334895    1.034094   -0.036100   -0.028733    0.101374    1.207194
H    -0.071619   -2.162707   -0.633029   -0.372191   -0.170755    0.125903
13
* Frequency(14)  665.1816
C     1.365896    0.533973   -0.018855    0.000364   -0.000210   -0.009320
C     1.282333   -0.790327    0.073067    0.004138   -0.014710   -0.177653
N    -0.020920   -1.450916    0.112072    0.000800   -0.004582   -0.056007
C    -1.290589   -0.620063    0.036013   -0.006260    0.019940    0.248248
N    -1.064621    0.707804   -0.084734   -0.003815    0.008823    0.110938
C     0.168979    1.388558   -0.153503    0.007902   -0.024794   -0.298617
O    -2.334542   -1.198897    0.016643    0.002225   -0.004750   -0.065994
O     0.193269    2.596290   -0.206260   -0.002145    0.007479    0.096628
H     2.120084   -1.468149    0.292902   -0.025746    0.090888    1.047988
H    -0.073003   -1.990470    0.996890    0.369001    0.193004    0.111104
H    -1.898601    1.279866   -0.275903    0.025054   -0.081133   -0.913643
H     2.331629    1.045615    0.101091   -0.028733    0.101374    1.207194
H    -0.113917   -2.182112   -0.618720   -0.372191   -0.170755    0.125903
13
* Frequency(14)  665.1816
C     1.365933    0.533952   -0.019799    0.000364   -0.000210   -0.009320
C     1.282753   -0.791818    0.055066    0.004138   -0.014710   -0.177653
N    -0.020839   -1.451380    0.106397    0.000800   -0.004582   -0.056007
C    -1.291223   -0.618043    0.061168   -0.006260    0.019940    0.248248
N    -1.065008    0.708698   -0.073492   -0.003815    0.008823    0.110938
C     0.169780    1.386046   -0.183761    0.007902   -0.024794   -0.298617
O    -2.334317   -1.199378    0.009956    0.002225   -0.004750   -0.065994
O     0.193052    2.597048   -0.196469   -0.002145    0.007479    0.096628
H     2.117475   -1.458939    0.399094   -0.025746    0.090888    1.047988
H    -0.035613   -1.970913    1.008148    0.369001    0.193004    0.111104
H    -1.896062    1.271644   -0.368482    0.025054   -0.081133   -0.913643
H     2.328718    1.055887    0.223416   -0.028733    0.101374    1.207194
H    -0.151631   -2.199414   -0.605963   -0.372191   -0.170755    0.125903
13
* Frequency(14)  665.1816
C     1.365962    0.533936   -0.020526    0.000364   -0.000210   -0.009320
C     1.283075   -0.792965    0.041203    0.004138   -0.014710   -0.177653
N    -0.020776   -1.451738    0.102027    0.000800   -0.004582   -0.056007
C    -1.291712   -0.616487    0.080540   -0.006260    0.019940    0.248248
N    -1.065306    0.709387   -0.064835   -0.003815    0.008823    0.110938
C     0.170397    1.384111   -0.207063    0.007902   -0.024794   -0.298617
O    -2.334143   -1.199749    0.004806    0.002225   -0.004750   -0.065994
O     0.192884    2.597632   -0.188928   -0.002145    0.007479    0.096628
H     2.115466   -1.451847    0.480873   -0.025746    0.090888    1.047988
H    -0.006818   -1.955852    1.016818    0.369001    0.193004    0.111104
H    -1.894107    1.265313   -0.439778    0.025054   -0.081133   -0.913643
H     2.326476    1.063797    0.317618   -0.028733    0.101374    1.207194
H    -0.180674   -2.212739   -0.596138   -0.372191   -0.170755    0.125903
13
* Frequency(14)  665.1816
C     1.365979    0.533926   -0.020958    0.000364   -0.000210   -0.009320
C     1.283267   -0.793646    0.032981    0.004138   -0.014710   -0.177653
N    -0.020739   -1.451950    0.099435    0.000800   -0.004582   -0.056007
C    -1.292001   -0.615564    0.092029   -0.006260    0.019940    0.248248
N    -1.065482    0.709795   -0.059701   -0.003815    0.008823    0.110938
C     0.170762    1.382963   -0.220884    0.007902   -0.024794   -0.298617
O    -2.334040   -1.199969    0.001752    0.002225   -0.004750   -0.065994
O     0.192785    2.597978   -0.184456   -0.002145    0.007479    0.096628
H     2.114275   -1.447640    0.529375   -0.025746    0.090888    1.047988
H     0.010260   -1.946920    1.021960    0.369001    0.193004    0.111104
H    -1.892947    1.261558   -0.482063    0.025054   -0.081133   -0.913643
H     2.325146    1.068489    0.373489   -0.028733    0.101374    1.207194
H    -0.197900   -2.220642   -0.590311   -0.372191   -0.170755    0.125903
13
* Frequency(14)  665.1816
C     1.365982    0.533924   -0.021046    0.000364   -0.000210   -0.009320
C     1.283306   -0.793786    0.031291    0.004138   -0.014710   -0.177653
N    -0.020731   -1.451993    0.098902    0.000800   -0.004582   -0.056007
C    -1.292061   -0.615374    0.094391   -0.006260    0.019940    0.248248
N    -1.065518    0.709879   -0.058645   -0.003815    0.008823    0.110938
C     0.170838    1.382728   -0.223725    0.007902   -0.024794   -0.298617
O    -2.334019   -1.200014    0.001124    0.002225   -0.004750   -0.065994
O     0.192765    2.598049   -0.183537   -0.002145    0.007479    0.096628
H     2.114030   -1.446776    0.539347   -0.025746    0.090888    1.047988
H     0.013771   -1.945083    1.023017    0.369001    0.193004    0.111104
H    -1.892709    1.260786   -0.490756    0.025054   -0.081133   -0.913643
H     2.324872    1.069454    0.384975   -0.028733    0.101374    1.207194
H    -0.201441   -2.222267   -0.589113   -0.372191   -0.170755    0.125903
13
* Frequency(14)  665.1816
C     1.365972    0.533930   -0.020783    0.000364   -0.000210   -0.009320
C     1.283189   -0.793370    0.036315    0.004138   -0.014710   -0.177653
N    -0.020754   -1.451864    0.100486    0.000800   -0.004582   -0.056007
C    -1.291884   -0.615938    0.087370   -0.006260    0.019940    0.248248
N    -1.065411    0.709630   -0.061783   -0.003815    0.008823    0.110938
C     0.170614    1.383429   -0.215279    0.007902   -0.024794   -0.298617
O    -2.334082   -1.199879    0.002991    0.002225   -0.004750   -0.065994
O     0.192825    2.597837   -0.186270   -0.002145    0.007479    0.096628
H     2.114758   -1.449346    0.509705   -0.025746    0.090888    1.047988
H     0.003334   -1.950542    1.019874    0.369001    0.193004    0.111104
H    -1.893418    1.263081   -0.464914    0.025054   -0.081133   -0.913643
H     2.325685    1.066586    0.350831   -0.028733    0.101374    1.207194
H    -0.190914   -2.217437   -0.592674   -0.372191   -0.170755    0.125903
13
* Frequency(14)  665.1816
C     1.365949    0.533943   -0.020195    0.000364   -0.000210   -0.009320
C     1.282929   -0.792443    0.047511    0.004138   -0.014710   -0.177653
N    -0.020805   -1.451575    0.104015    0.000800   -0.004582   -0.056007
C    -1.291489   -0.617195    0.071726   -0.006260    0.019940    0.248248
N    -1.065170    0.709074   -0.068774   -0.003815    0.008823    0.110938
C     0.170116    1.384991   -0.196461    0.007902   -0.024794   -0.298617
O    -2.334222   -1.199580    0.007150    0.002225   -0.004750   -0.065994
O     0.192961    2.597366   -0.192359   -0.002145    0.007479    0.096628
H     2.116380   -1.455074    0.443664   -0.025746    0.090888    1.047988
H    -0.019919   -1.962705    1.012873    0.369001    0.193004    0.111104
H    -1.894996    1.268194   -0.407339    0.025054   -0.081133   -0.913643
H     2.327496    1.060198    0.274756   -0.028733    0.101374    1.207194
H    -0.167460   -2.206676   -0.600608   -0.372191   -0.170755    0.125903
13
* Frequency(14)  665.1816
C     1.365916    0.533962   -0.019348    0.000364   -0.000210   -0.009320
C     1.282552   -0.791106    0.063663    0.004138   -0.014710   -0.177653
N    -0.020877   -1.451158    0.109108    0.000800   -0.004582   -0.056007
C    -1.290920   -0.619008    0.049155   -0.006260    0.019940    0.248248
N    -1.064823    0.708271   -0.078861   -0.003815    0.008823    0.110938
C     0.169398    1.387246   -0.169310    0.007902   -0.024794   -0.298617
O    -2.334424   -1.199148    0.013150    0.002225   -0.004750   -0.065994
O     0.193156    2.596686   -0.201145   -0.002145    0.007479    0.096628
H     2.118721   -1.463337    0.348379   -0.025746    0.090888    1.047988
H    -0.053470   -1.980253    1.002771    0.369001    0.193004    0.111104
H    -1.897274    1.275571   -0.324269    0.025054   -0.081133   -0.913643
H     2.330108    1.050981    0.164996   -0.028733    0.101374    1.207194
H    -0.133619   -2.191151   -0.612055   -0.372191   -0.170755    0.125903
13
* Frequency(14)  665.1816
C     1.365876    0.533985   -0.018332    0.000364   -0.000210   -0.009320
C     1.282101   -0.789503    0.083023    0.004138   -0.014710   -0.177653
N    -0.020965   -1.450659    0.115211    0.000800   -0.004582   -0.056007
C    -1.290238   -0.621181    0.022102   -0.006260    0.019940    0.248248
N    -1.064408    0.707310   -0.090950   -0.003815    0.008823    0.110938
C     0.168536    1.389948   -0.136769    0.007902   -0.024794   -0.298617
O    -2.334667   -1.198631    0.020341    0.002225   -0.004750   -0.065994
O     0.193389    2.595871   -0.211675   -0.002145    0.007479    0.096628
H     2.121527   -1.473242    0.234176   -0.025746    0.090888    1.047988
H    -0.093681   -2.001285    0.990664    0.369001    0.193004    0.111104
H    -1.900005    1.284412   -0.224706    0.025054   -0.081133   -0.913643
H     2.333240    1.039934    0.033444   -0.028733    0.101374    1.207194
H    -0.093060   -2.172543   -0.625776   -0.372191   -0.170755    0.125903
13
* Frequency(14)  665.1816
C     1.365834    0.534009   -0.017259    0.000364   -0.000210   -0.009320
C     1.281625   -0.787808    0.103491    0.004138   -0.014710   -0.177653
N    -0.021057   -1.450131    0.121664    0.000800   -0.004582   -0.056007
C    -1.289517   -0.623478   -0.006500   -0.006260    0.019940    0.248248
N    -1.063968    0.706293   -0.103732   -0.003815    0.008823    0.110938
C     0.167626    1.392804   -0.102364    0.007902   -0.024794   -0.298617
O    -2.334923   -1.198083    0.027945    0.002225   -0.004750   -0.065994
O     0.193636    2.595009   -0.222808   -0.002145    0.007479    0.096628
H     2.124493   -1.483714    0.113431   -0.025746    0.090888    1.047988
H    -0.136196   -2.023523    0.977863    0.369001    0.193004    0.111104
H    -1.902891    1.293760   -0.119439    0.025054   -0.081133   -0.913643
H     2.336550    1.028254   -0.105644   -0.028733    0.101374    1.207194
H    -0.050178   -2.152870   -0.640282   -0.372191   -0.170755    0.125903
13
* Frequency(14)  665.1816
C     1.365794    0.534032   -0.016243    0.000364   -0.000210   -0.009320
C     1.281174   -0.786205    0.122850    0.004138   -0.014710   -0.177653
N    -0.021144   -1.449632    0.127767    0.000800   -0.004582   -0.056007
C    -1.288835   -0.625651   -0.033552   -0.006260    0.019940    0.248248
N    -1.063552    0.705332   -0.115821   -0.003815    0.008823    0.110938
C     0.166765    1.395506   -0.069822    0.007902   -0.024794   -0.298617
O    -2.335166   -1.197566    0.035137    0.002225   -0.004750   -0.065994
O     0.193870    2.594194   -0.233338   -0.002145    0.007479    0.096628
H     2.127299   -1.493618   -0.000772   -0.025746    0.090888    1.047988
H    -0.176407   -2.044555    0.965756    0.369001    0.193004    0.111104
H    -1.905622    1.302601   -0.019876    0.025054   -0.081133   -0.913643
H     2.339681    1.017207   -0.237196   -0.028733    0.101374    1.207194
H    -0.009619   -2.134262   -0.654002   -0.372191   -0.170755    0.125903
13
* Frequency(14)  665.1816
C     1.365761    0.534051   -0.015396    0.000364   -0.000210   -0.009320
C     1.280797   -0.784868    0.139003    0.004138   -0.014710   -0.177653
N    -0.021217   -1.449215    0.132859    0.000800   -0.004582   -0.056007
C    -1.288266   -0.627464   -0.056123   -0.006260    0.019940    0.248248
N    -1.063206    0.704530   -0.125908   -0.003815    0.008823    0.110938
C     0.166046    1.397761   -0.042672    0.007902   -0.024794   -0.298617
O    -2.335368   -1.197134    0.041137    0.002225   -0.004750   -0.065994
O     0.194065    2.593514   -0.242123   -0.002145    0.007479    0.096628
H     2.129640   -1.501882   -0.096057   -0.025746    0.090888    1.047988
H    -0.209958   -2.062103    0.955654    0.369001    0.193004    0.111104
H    -1.907899    1.309978    0.063194    0.025054   -0.081133   -0.913643
H     2.342294    1.007990   -0.346956   -0.028733    0.101374    1.207194
H     0.024221   -2.118737   -0.665449   -0.372191   -0.170755    0.125903
13
* Frequency(14)  665.1816
C     1.365738    0.534065   -0.014808    0.000364   -0.000210   -0.009320
C     1.280537   -0.783941    0.150198    0.004138   -0.014710   -0.177653
N    -0.021267   -1.448926    0.136389    0.000800   -0.004582   -0.056007
C    -1.287871   -0.628720   -0.071767   -0.006260    0.019940    0.248248
N    -1.062965    0.703974   -0.132899   -0.003815    0.008823    0.110938
C     0.165548    1.399323   -0.023854    0.007902   -0.024794   -0.298617
O    -2.335508   -1.196835    0.045296    0.002225   -0.004750   -0.065994
O     0.194200    2.593043   -0.248212   -0.002145    0.007479    0.096628
H     2.131262   -1.507609   -0.162098   -0.025746    0.090888    1.047988
H    -0.233211   -2.074266    0.948652    0.369001    0.193004    0.111104
H    -1.909478    1.315091    0.120769    0.025054   -0.081133   -0.913643
H     2.344104    1.001602   -0.423031   -0.028733    0.101374    1.207194
H     0.047676   -2.107976   -0.673383   -0.372191   -0.170755    0.125903
13
* Frequency(14)  665.1816
C     1.365728    0.534071   -0.014545    0.000364   -0.000210   -0.009320
C     1.280419   -0.783525    0.155223    0.004138   -0.014710   -0.177653
N    -0.021290   -1.448797    0.137973    0.000800   -0.004582   -0.056007
C    -1.287694   -0.629284   -0.078789   -0.006260    0.019940    0.248248
N    -1.062857    0.703724   -0.136037   -0.003815    0.008823    0.110938
C     0.165325    1.400024   -0.015408    0.007902   -0.024794   -0.298617
O    -2.335571   -1.196700    0.047162    0.002225   -0.004750   -0.065994
O     0.194261    2.592832   -0.250945   -0.002145    0.007479    0.096628
H     2.131990   -1.510180   -0.191740   -0.025746    0.090888    1.047988
H    -0.243648   -2.079725    0.945510    0.369001    0.193004    0.111104
H    -1.910187    1.317386    0.146611    0.025054   -0.081133   -0.913643
H     2.344917    0.998734   -0.457175   -0.028733    0.101374    1.207194
H     0.058203   -2.103147   -0.676944   -0.372191   -0.170755    0.125903
13
* Frequency(14)  665.1816
C     1.365731    0.534069   -0.014633    0.000364   -0.000210   -0.009320
C     1.280459   -0.783665    0.153532    0.004138   -0.014710   -0.177653
N    -0.021282   -1.448840    0.137440    0.000800   -0.004582   -0.056007
C    -1.287754   -0.629095   -0.076427   -0.006260    0.019940    0.248248
N    -1.062894    0.703808   -0.134981   -0.003815    0.008823    0.110938
C     0.165400    1.399788   -0.018249    0.007902   -0.024794   -0.298617
O    -2.335550   -1.196746    0.046534    0.002225   -0.004750   -0.065994
O     0.194240    2.592903   -0.250026   -0.002145    0.007479    0.096628
H     2.131745   -1.509315   -0.181769   -0.025746    0.090888    1.047988
H    -0.240137   -2.077888    0.946567    0.369001    0.193004    0.111104
H    -1.909949    1.316614    0.137918    0.025054   -0.081133   -0.913643
H     2.344644    0.999699   -0.445689   -0.028733    0.101374    1.207194
H     0.054662   -2.104771   -0.675746   -0.372191   -0.170755    0.125903
13
* Frequency(14)  665.1816
C     1.365748    0.534059   -0.015065    0.000364   -0.000210   -0.009320
C     1.280650   -0.784345    0.145310    0.004138   -0.014710   -0.177653
N    -0.021245   -1.449052    0.134848    0.000800   -0.004582   -0.056007
C    -1.288043   -0.628172   -0.064937   -0.006260    0.019940    0.248248
N    -1.063070    0.704217   -0.129847   -0.003815    0.008823    0.110938
C     0.165766    1.398641   -0.032069    0.007902   -0.024794   -0.298617
O    -2.335447   -1.196965    0.043480    0.002225   -0.004750   -0.065994
O     0.194141    2.593249   -0.245554   -0.002145    0.007479    0.096628
H     2.130554   -1.505109   -0.133266   -0.025746    0.090888    1.047988
H    -0.223059   -2.068956    0.951709    0.369001    0.193004    0.111104
H    -1.908789    1.312859    0.095633    0.025054   -0.081133   -0.913643
H     2.343314    1.004391   -0.389818   -0.028733    0.101374    1.207194
H     0.037436   -2.112674   -0.669919   -0.372191   -0.170755    0.125903
13
* Frequency(14)  665.1816
C     1.365777    0.534043   -0.015792    0.000364   -0.000210   -0.009320
C     1.280973   -0.785493    0.131447    0.004138   -0.014710   -0.177653
N    -0.021183   -1.449410    0.130477    0.000800   -0.004582   -0.056007
C    -1.288532   -0.626616   -0.045566   -0.006260    0.019940    0.248248
N    -1.063368    0.704905   -0.121190   -0.003815    0.008823    0.110938
C     0.166382    1.396706   -0.055371    0.007902   -0.024794   -0.298617
O    -2.335273   -1.197336    0.038330    0.002225   -0.004750   -0.065994
O     0.193974    2.593832   -0.238014   -0.002145    0.007479    0.096628
H     2.128545   -1.498016   -0.051487   -0.025746    0.090888    1.047988
H    -0.194264   -2.053895    0.960379    0.369001    0.193004    0.111104
H    -1.906834    1.306528    0.024338    0.025054   -0.081133   -0.913643
H     2.341072    1.012301   -0.295616   -0.028733    0.101374    1.207194
H     0.008393   -2.125999   -0.660095   -0.372191   -0.170755    0.125903
13
* Frequency(14)  665.1816
C     1.365814    0.534021   -0.016736    0.000364   -0.000210   -0.009320
C     1.281393   -0.786984    0.113446    0.004138   -0.014710   -0.177653
N    -0.021102   -1.449874    0.124802    0.000800   -0.004582   -0.056007
C    -1.289166   -0.624595   -0.020411   -0.006260    0.019940    0.248248
N    -1.063754    0.705799   -0.109949   -0.003815    0.008823    0.110938
C     0.167183    1.394194   -0.085630    0.007902   -0.024794   -0.298617
O    -2.335048   -1.197817    0.031643    0.002225   -0.004750   -0.065994
O     0.193757    2.594590   -0.228222   -0.002145    0.007479    0.096628
H     2.125936   -1.488807    0.054705   -0.025746    0.090888    1.047988
H    -0.156874   -2.034338    0.971637    0.369001    0.193004    0.111104
H    -1.904295    1.298306   -0.068242    0.025054   -0.081133   -0.913643
H     2.338160    1.022573   -0.173291   -0.028733    0.101374    1.207194
H    -0.029321   -2.143301   -0.647337   -0.372191   -0.170755    0.125903
13
* Frequency(14)  665.1816
C     1.365855    0.533997   -0.017795    0.000364   -0.000210   -0.009320
C     1.281863   -0.788655    0.093257    0.004138   -0.014710   -0.177653
N    -0.021011   -1.450395    0.118437    0.000800   -0.004582   -0.056007
C    -1.289878   -0.622329    0.007801   -0.006260    0.019940    0.248248
N    -1.064188    0.706802   -0.097341   -0.003815    0.008823    0.110938
C     0.168081    1.391376   -0.119566    0.007902   -0.024794   -0.298617
O    -2.334795   -1.198357    0.024143    0.002225   -0.004750   -0.065994
O     0.193513    2.595440   -0.217241   -0.002145    0.007479    0.096628
H     2.123010   -1.478478    0.173803   -0.025746    0.090888    1.047988
H    -0.114939   -2.012404    0.984263    0.369001    0.193004    0.111104
H    -1.901448    1.289086   -0.172072    0.025054   -0.081133   -0.913643
H     2.334895    1.034094   -0.036100   -0.028733    0.101374    1.207194
H    -0.071619   -2.162707   -0.633029   -0.372191   -0.170755    0.125903
