
                                 *****************
                                 * O   R   C   A *
                                 *****************

           --- An Ab Initio, DFT and Semiempirical electronic structure package ---

                  #######################################################
                  #                        -***-                        #
                  #          Department of theory and spectroscopy      #
                  #               Directorship: Frank Neese             #
                  #        Max Planck Institute fuer Kohlenforschung    #
                  #                Kaiser Wilhelm Platz 1               #
                  #                 D-45470 Muelheim/Ruhr               #
                  #                      Germany                        #
                  #                                                     #
                  #                  All rights reserved                #
                  #                        -***-                        #
                  #######################################################


                         Program Version 4.2.1 -  RELEASE  -


 With contributions from (in alphabetic order):
   Daniel Aravena         : Magnetic Suceptibility
   Michael Atanasov       : Ab Initio Ligand Field Theory (pilot matlab implementation)
   Alexander A. Auer      : GIAO ZORA, VPT2
   Ute Becker             : Parallelization
   Giovanni Bistoni       : ED, misc. LED, open-shell LED, HFLD
   Martin Brehm           : Molecular dynamics
   Dmytro Bykov           : SCF Hessian
   Vijay G. Chilkuri      : MRCI spin determinant printing, contributions to CSF-ICE
   Dipayan Datta          : RHF DLPNO-CCSD density
   Achintya Kumar Dutta   : EOM-CC, STEOM-CC
   Dmitry Ganyushin       : Spin-Orbit,Spin-Spin,Magnetic field MRCI
   Miquel Garcia          : C-PCM Hessian, Gaussian charge scheme
   Yang Guo               : DLPNO-NEVPT2, CIM, IAO-localization
   Andreas Hansen         : Spin unrestricted coupled pair/coupled cluster methods
   Benjamin Helmich-Paris : CASSCF linear response (MC-RPA)
   Lee Huntington         : MR-EOM, pCC
   Robert Izsak           : Overlap fitted RIJCOSX, COSX-SCS-MP3, EOM
   Christian Kollmar      : KDIIS, OOCD, Brueckner-CCSD(T), CCSD density
   Simone Kossmann        : Meta GGA functionals, TD-DFT gradient, OOMP2, MP2 Hessian
   Martin Krupicka        : AUTO-CI
   Lucas Lang             : DCDCAS
   Dagmar Lenk            : GEPOL surface, SMD
   Dimitrios Liakos       : Extrapolation schemes; Compound Job, initial MDCI parallelization
   Dimitrios Manganas     : Further ROCIS development; embedding schemes
   Dimitrios Pantazis     : SARC Basis sets
   Taras Petrenko         : DFT Hessian,TD-DFT gradient, ASA, ECA, R-Raman, ABS, FL, XAS/XES, NRVS
   Peter Pinski           : DLPNO-MP2, DLPNO-MP2 Gradient
   Christoph Reimann      : Effective Core Potentials
   Marius Retegan         : Local ZFS, SOC
   Christoph Riplinger    : Optimizer, TS searches, QM/MM, DLPNO-CCSD(T), (RO)-DLPNO pert. Triples
   Tobias Risthaus        : Range-separated hybrids, TD-DFT gradient, RPA, STAB
   Michael Roemelt        : Original ROCIS implementation
   Masaaki Saitow         : Open-shell DLPNO-CCSD energy and density
   Barbara Sandhoefer     : DKH picture change effects
   Avijit Sen             : IP-ROCIS
   Kantharuban Sivalingam : CASSCF convergence, NEVPT2, FIC-MRCI
   Bernardo de Souza      : ESD, SOC TD-DFT
   Georgi Stoychev        : AutoAux, RI-MP2 NMR
   Willem Van den Heuvel  : Paramagnetic NMR
   Boris Wezisla          : Elementary symmetry handling
   Frank Wennmohs         : Technical directorship


 We gratefully acknowledge several colleagues who have allowed us to
 interface, adapt or use parts of their codes:
   Stefan Grimme, W. Hujo, H. Kruse,             : VdW corrections, initial TS optimization,
                  C. Bannwarth                     DFT functionals, gCP, sTDA/sTD-DF
   Ed Valeev, F. Pavosevic, A. Kumar             : LibInt (2-el integral package), F12 methods
   Garnet Chan, S. Sharma, J. Yang, R. Olivares  : DMRG
   Ulf Ekstrom                                   : XCFun DFT Library
   Mihaly Kallay                                 : mrcc  (arbitrary order and MRCC methods)
   Andreas Klamt, Michael Diedenhofen            : otool_cosmo (COSMO solvation model)
   Jiri Pittner, Ondrej Demel                    : Mk-CCSD
   Frank Weinhold                                : gennbo (NPA and NBO analysis)
   Christopher J. Cramer and Donald G. Truhlar   : smd solvation model
   Lars Goerigk                                  : TD-DFT with DH, B97 family of functionals
   V. Asgeirsson, H. Jonsson                     : NEB implementation
   FAccTs GmbH                                   : IRC, NEB, NEB-TS, Multilevel, MM, QM/MM, CI optimization
   S Lehtola, MJT Oliveira, MAL Marques          : LibXC Library


 Your calculation uses the libint2 library for the computation of 2-el integrals
 For citations please refer to: http://libint.valeyev.net

 Your ORCA version has been built with support for libXC version: 4.2.3
 For citations please refer to: https://tddft.org/programs/libxc/

 This ORCA versions uses:
   CBLAS   interface :  Fast vector & matrix operations
   LAPACKE interface :  Fast linear algebra routines
   SCALAPACK package :  Parallel linear algebra routines


----- Orbital basis set information -----
Your calculation utilizes the basis: def2-SVP
   F. Weigend and R. Ahlrichs, Phys. Chem. Chem. Phys. 7, 3297 (2005).

================================================================================
                                        WARNINGS
                       Please study these warnings very carefully!
================================================================================


WARNING: Geometry Optimization
  ===> : Switching off AutoStart
         For restart on a previous wavefunction, please use MOREAD

INFO   : the flag for use of LIBINT has been found!

================================================================================
                                       INPUT FILE
================================================================================
NAME = Uracil_1.inp
|  1> !B3LYP def2-SVP OPT FREQ CPCM(water)
|  2> %pal
|  3> nprocs 16
|  4> end
|  5> * xyz 1 1
|  6>    C        1.42595        0.54579       -0.06621
|  7>    C        1.23202       -0.75083        0.19371
|  8>    N       -0.03350       -1.26223        0.32139
|  9>    C       -1.16035       -0.50853        0.20103
| 10>    N       -1.03684        0.83831       -0.05387
| 11>    C        0.22580        1.37960       -0.20389
| 12>    O       -2.30847       -0.88269        0.29613
| 13>    O        0.22186        2.56700       -0.44722
| 14>    H        2.05878       -1.44956        0.31201
| 15>    H       -0.16666       -2.25433        0.51397
| 16>    H       -1.62671        1.09786       -0.84212
| 17>    H        2.39975        1.00504       -0.18005
| 18>    H       -1.54849        1.36077        0.65492
| 19> **                         ****END OF INPUT****
================================================================================

                       *****************************
                       * Geometry Optimization Run *
                       *****************************

Geometry optimization settings:
Update method            Update   .... BFGS
Choice of coordinates    CoordSys .... Z-matrix Internals
Initial Hessian          InHess   .... Almoef's Model

Convergence Tolerances:
Energy Change            TolE     ....  5.0000e-06 Eh
Max. Gradient            TolMAXG  ....  3.0000e-04 Eh/bohr
RMS Gradient             TolRMSG  ....  1.0000e-04 Eh/bohr
Max. Displacement        TolMAXD  ....  4.0000e-03 bohr
RMS Displacement         TolRMSD  ....  2.0000e-03 bohr
Strict Convergence                ....  False
------------------------------------------------------------------------------
                        ORCA OPTIMIZATION COORDINATE SETUP
------------------------------------------------------------------------------

The optimization will be done in new redundant internal coordinates
Making redundant internal coordinates   ...  (new redundants) done
Evaluating the initial hessian          ...  (Almloef) done
Evaluating the coordinates              ...  done
Calculating the B-matrix                .... done
Calculating the G-matrix                .... done
Diagonalizing the G-matrix              .... done
The first mode is                       ....   29
The number of degrees of freedom        ....   33

    -----------------------------------------------------------------
                    Redundant Internal Coordinates


    -----------------------------------------------------------------
         Definition                    Initial Value    Approx d2E/dq
    -----------------------------------------------------------------
      1. B(C   1,C   0)                  1.3366         0.760326   
      2. B(N   2,C   1)                  1.3709         0.600267   
      3. B(C   3,N   2)                  1.3610         0.622488   
      4. B(N   4,C   3)                  1.3763         0.588478   
      5. B(C   5,N   4)                  1.3819         0.576412   
      6. B(C   5,C   0)                  1.4678         0.469407   
      7. B(O   6,C   3)                  1.2113         1.078943   
      8. B(O   7,C   5)                  1.2121         1.075800   
      9. B(H   8,C   1)                  1.0889         0.361529   
     10. B(H   9,N   2)                  1.0194         0.418093   
     11. B(H  10,N   4)                  1.0182         0.419928   
     12. B(H  11,C   0)                  1.0827         0.369940   
     13. B(H  12,N   4)                  1.0184         0.419563   
     14. A(C   5,C   0,H  11)          118.9859         0.338318   
     15. A(C   1,C   0,H  11)          124.2265         0.367073   
     16. A(C   1,C   0,C   5)          116.7875         0.428318   
     17. A(N   2,C   1,H   8)          116.8333         0.349061   
     18. A(C   0,C   1,H   8)          122.2395         0.365630   
     19. A(C   0,C   1,N   2)          120.9271         0.444787   
     20. A(C   3,N   2,H   9)          116.5850         0.356822   
     21. A(C   1,N   2,C   3)          123.3320         0.426241   
     22. A(C   1,N   2,H   9)          120.0828         0.354628   
     23. A(N   2,C   3,O   6)          127.3565         0.474104   
     24. A(N   2,C   3,N   4)          118.9473         0.424730   
     25. A(N   4,C   3,O   6)          113.6960         0.469237   
     26. A(C   3,N   4,H  10)          109.9291         0.353700   
     27. A(C   5,N   4,H  12)          109.4902         0.352410   
     28. A(C   3,N   4,C   5)          119.0388         0.418937   
     29. A(C   3,N   4,H  12)          109.1506         0.353648   
     30. A(C   5,N   4,H  10)          110.2087         0.352462   
     31. A(H  10,N   4,H  12)           96.7177         0.300328   
     32. A(C   0,C   5,N   4)          120.9549         0.405080   
     33. A(N   4,C   5,O   7)          113.7368         0.467209   
     34. A(C   0,C   5,O   7)          125.3081         0.453028   
     35. D(H   8,C   1,C   0,C   5)    179.9356         0.041338   
     36. D(N   2,C   1,C   0,H  11)   -179.8353         0.041338   
     37. D(N   2,C   1,C   0,C   5)      0.0611         0.041338   
     38. D(H   8,C   1,C   0,H  11)      0.0391         0.041338   
     39. D(C   3,N   2,C   1,H   8)    179.8970         0.029036   
     40. D(C   3,N   2,C   1,C   0)     -0.2220         0.029036   
     41. D(H   9,N   2,C   1,C   0)    179.6194         0.029036   
     42. D(H   9,N   2,C   1,H   8)     -0.2616         0.029036   
     43. D(O   6,C   3,N   2,H   9)     -0.0423         0.031397   
     44. D(O   6,C   3,N   2,C   1)    179.8042         0.031397   
     45. D(N   4,C   3,N   2,H   9)    179.7510         0.031397   
     46. D(N   4,C   3,N   2,C   1)     -0.4025         0.031397   
     47. D(H  10,N   4,C   3,N   2)    129.5953         0.030247   
     48. D(C   5,N   4,C   3,O   6)   -179.0154         0.030247   
     49. D(C   5,N   4,C   3,N   2)      1.1640         0.030247   
     50. D(H  12,N   4,C   3,O   6)     54.3452         0.030247   
     51. D(H  12,N   4,C   3,N   2)   -125.4754         0.030247   
     52. D(H  10,N   4,C   3,O   6)    -50.5842         0.030247   
     53. D(O   7,C   5,N   4,H  12)    -54.6896         0.028935   
     54. D(O   7,C   5,N   4,C   3)    178.8315         0.028935   
     55. D(C   0,C   5,N   4,H  12)    125.1396         0.028935   
     56. D(C   0,C   5,N   4,H  10)   -129.6416         0.028935   
     57. D(C   0,C   5,N   4,C   3)     -1.3393         0.028935   
     58. D(O   7,C   5,C   0,H  11)      0.4329         0.015004   
     59. D(O   7,C   5,C   0,C   1)   -179.4692         0.015004   
     60. D(O   7,C   5,N   4,H  10)     50.5292         0.028935   
     61. D(N   4,C   5,C   0,H  11)   -179.3755         0.015004   
     62. D(N   4,C   5,C   0,C   1)      0.7224         0.015004   
    -----------------------------------------------------------------

Number of atoms                         .... 13
Number of degrees of freedom            .... 62

         *************************************************************
         *                GEOMETRY OPTIMIZATION CYCLE   1            *
         *************************************************************
---------------------------------
CARTESIAN COORDINATES (ANGSTROEM)
---------------------------------
  C      1.425950    0.545790   -0.066210
  C      1.232020   -0.750830    0.193710
  N     -0.033500   -1.262230    0.321390
  C     -1.160350   -0.508530    0.201030
  N     -1.036840    0.838310   -0.053870
  C      0.225800    1.379600   -0.203890
  O     -2.308470   -0.882690    0.296130
  O      0.221860    2.567000   -0.447220
  H      2.058780   -1.449560    0.312010
  H     -0.166660   -2.254330    0.513970
  H     -1.626710    1.097860   -0.842120
  H      2.399750    1.005040   -0.180050
  H     -1.548490    1.360770    0.654920

----------------------------
CARTESIAN COORDINATES (A.U.)
----------------------------
  NO LB      ZA    FRAG     MASS         X           Y           Z
   0 C     6.0000    0    12.011    2.694655    1.031394   -0.125119
   1 C     6.0000    0    12.011    2.328180   -1.418863    0.366059
   2 N     7.0000    0    14.007   -0.063306   -2.385269    0.607339
   3 C     6.0000    0    12.011   -2.192744   -0.960982    0.379892
   4 N     7.0000    0    14.007   -1.959344    1.584176   -0.101800
   5 C     6.0000    0    12.011    0.426700    2.607066   -0.385296
   6 O     8.0000    0    15.999   -4.362376   -1.668042    0.559605
   7 O     8.0000    0    15.999    0.419255    4.850927   -0.845123
   8 H     1.0000    0     1.008    3.890530   -2.739271    0.589613
   9 H     1.0000    0     1.008   -0.314942   -4.260066    0.971263
  10 H     1.0000    0     1.008   -3.074036    2.074655   -1.591376
  11 H     1.0000    0     1.008    4.534870    1.899250   -0.340245
  12 H     1.0000    0     1.008   -2.926222    2.571483    1.237619

--------------------------------
INTERNAL COORDINATES (ANGSTROEM)
--------------------------------
 C      0   0   0     0.000000000000     0.00000000     0.00000000
 C      1   0   0     1.336559267560     0.00000000     0.00000000
 N      2   1   0     1.370902262308   120.92707169     0.00000000
 C      3   2   1     1.361007399723   123.33197900   359.77800336
 N      4   3   2     1.376301825800   118.94725047   359.59750488
 C      5   4   3     1.381940893852   119.03884217     1.16397526
 O      4   3   2     1.211288260490   127.35650071   179.80419671
 O      6   5   4     1.212082411596   113.73677265   178.83149013
 H      2   1   3     1.088921760504   122.23953531   179.87444522
 H      3   2   1     1.019353251822   120.08280805   179.61937294
 H      5   4   3     1.018160538373   109.92912973   129.59525462
 H      1   2   3     1.082661788418   124.22647836   180.16467139
 H      5   4   3     1.018397485366   109.15060659   234.52457581

---------------------------
INTERNAL COORDINATES (A.U.)
---------------------------
 C      0   0   0     0.000000000000     0.00000000     0.00000000
 C      1   0   0     2.525730977442     0.00000000     0.00000000
 N      2   1   0     2.590629832134   120.92707169     0.00000000
 C      3   2   1     2.571931251716   123.33197900   359.77800336
 N      4   3   2     2.600833528378   118.94725047   359.59750488
 C      5   4   3     2.611489822646   119.03884217     1.16397526
 O      4   3   2     2.289003081559   127.35650071   179.80419671
 O      6   5   4     2.290503809659   113.73677265   178.83149013
 H      2   1   3     2.057763908621   122.23953531   179.87444522
 H      3   2   1     1.926298479666   120.08280805   179.61937294
 H      5   4   3     1.924044577891   109.92912973   129.59525462
 H      1   2   3     2.045934275771   124.22647836   180.16467139
 H      5   4   3     1.924492342816   109.15060659   234.52457581

---------------------
BASIS SET INFORMATION
---------------------
There are 4 groups of distinct atoms

 Group   1 Type C   : 7s4p1d contracted to 3s2p1d pattern {511/31/1}
 Group   2 Type N   : 7s4p1d contracted to 3s2p1d pattern {511/31/1}
 Group   3 Type O   : 7s4p1d contracted to 3s2p1d pattern {511/31/1}
 Group   4 Type H   : 4s1p contracted to 2s1p pattern {31/1}

Atom   0C    basis set group =>   1
Atom   1C    basis set group =>   1
Atom   2N    basis set group =>   2
Atom   3C    basis set group =>   1
Atom   4N    basis set group =>   2
Atom   5C    basis set group =>   1
Atom   6O    basis set group =>   3
Atom   7O    basis set group =>   3
Atom   8H    basis set group =>   4
Atom   9H    basis set group =>   4
Atom  10H    basis set group =>   4
Atom  11H    basis set group =>   4
Atom  12H    basis set group =>   4


           ************************************************************
           *        Program running with 16 parallel MPI-processes    *
           *              working on a common directory               *
           ************************************************************
------------------------------------------------------------------------------
                           ORCA GTO INTEGRAL CALCULATION
------------------------------------------------------------------------------

                         BASIS SET STATISTICS AND STARTUP INFO

 # of primitive gaussian shells          ...  121
 # of primitive gaussian functions       ...  227
 # of contracted shells                  ...   63
 # of contracted basis functions         ...  137
 Highest angular momentum                ...    2
 Maximum contraction depth               ...    5
 Integral package used                   ... LIBINT
 Integral threshhold            Thresh   ...  2.500e-11
 Primitive cut-off              TCut     ...  2.500e-12


------------------------------ INTEGRAL EVALUATION ----------------------------


 * One electron integrals 
 Pre-screening matrix                    ... done
 Shell pair data                         ... done (   0.001 sec)



           ************************************************************
           *        Program running with 16 parallel MPI-processes    *
           *              working on a common directory               *
           ************************************************************
-------------------------------------------------------------------------------
                                 ORCA SCF
-------------------------------------------------------------------------------

------------
SCF SETTINGS
------------
Hamiltonian:
 Density Functional     Method          .... DFT(GTOs)
 Exchange Functional    Exchange        .... B88
   X-Alpha parameter    XAlpha          ....  0.666667
   Becke's b parameter  XBeta           ....  0.004200
 Correlation Functional Correlation     .... LYP
 LDA part of GGA corr.  LDAOpt          .... VWN-5
 Gradients option       PostSCFGGA      .... off
 Hybrid DFT is turned on
   Fraction HF Exchange ScalHFX         ....  0.200000
   Scaling of DF-GGA-X  ScalDFX         ....  0.720000
   Scaling of DF-GGA-C  ScalDFC         ....  0.810000
   Scaling of DF-LDA-C  ScalLDAC        ....  1.000000
   Perturbative correction              ....  0.000000
   Density functional embedding theory  .... OFF
   NL short-range parameter             ....  4.800000


General Settings:
 Integral files         IntName         .... Uracil_1
 Hartree-Fock type      HFTyp           .... RHF
 Total Charge           Charge          ....    1
 Multiplicity           Mult            ....    1
 Number of Electrons    NEL             ....   58
 Basis Dimension        Dim             ....  137
 Nuclear Repulsion      ENuc            ....    374.9181112473 Eh

Convergence Acceleration:
 DIIS                   CNVDIIS         .... on
   Start iteration      DIISMaxIt       ....    12
   Startup error        DIISStart       ....  0.200000
   # of expansion vecs  DIISMaxEq       ....     5
   Bias factor          DIISBfac        ....   1.050
   Max. coefficient     DIISMaxC        ....  10.000
 Newton-Raphson         CNVNR           .... off
 SOSCF                  CNVSOSCF        .... on
   Start iteration      SOSCFMaxIt      ....   150
   Startup grad/error   SOSCFStart      ....  0.003300
 Level Shifting         CNVShift        .... on
   Level shift para.    LevelShift      ....    0.2500
   Turn off err/grad.   ShiftErr        ....    0.0010
 Zerner damping         CNVZerner       .... off
 Static damping         CNVDamp         .... on
   Fraction old density DampFac         ....    0.7000
   Max. Damping (<1)    DampMax         ....    0.9800
   Min. Damping (>=0)   DampMin         ....    0.0000
   Turn off err/grad.   DampErr         ....    0.1000
 Fernandez-Rico         CNVRico         .... off

SCF Procedure:
 Maximum # iterations   MaxIter         ....   125
 SCF integral mode      SCFMode         .... Direct
   Integral package                     .... LIBINT
 Reset frequency        DirectResetFreq ....    20
 Integral Threshold     Thresh          ....  2.500e-11 Eh
 Primitive CutOff       TCut            ....  2.500e-12 Eh

Convergence Tolerance:
 Convergence Check Mode ConvCheckMode   .... Total+1el-Energy
 Convergence forced     ConvForced      .... 0
 Energy Change          TolE            ....  1.000e-08 Eh
 1-El. energy change                    ....  1.000e-05 Eh
 Orbital Gradient       TolG            ....  1.000e-05
 Orbital Rotation angle TolX            ....  1.000e-05
 DIIS Error             TolErr          ....  5.000e-07


Diagonalization of the overlap matrix:
Smallest eigenvalue                        ... 1.229e-03
Time for diagonalization                   ...    0.004 sec
Threshold for overlap eigenvalues          ... 1.000e-08
Number of eigenvalues below threshold      ... 0
Time for construction of square roots      ...    0.002 sec
Total time needed                          ...    0.007 sec

-------------------
DFT GRID GENERATION
-------------------

General Integration Accuracy     IntAcc      ...  4.340
Radial Grid Type                 RadialGrid  ... Gauss-Chebyshev
Angular Grid (max. acc.)         AngularGrid ... Lebedev-110
Angular grid pruning method      GridPruning ... 3 (G Style)
Weight generation scheme         WeightScheme... Becke
Basis function cutoff            BFCut       ...    1.0000e-11
Integration weight cutoff        WCut        ...    1.0000e-14
Grids for H and He will be reduced by one unit

# of grid points (after initial pruning)     ...  17430 (   0.0 sec)
# of grid points (after weights+screening)   ...  16333 (   0.0 sec)
nearest neighbour list constructed           ...    0.0 sec
Grid point re-assignment to atoms done       ...    0.0 sec
Grid point division into batches done        ...    0.0 sec
Reduced shell lists constructed in    0.0 sec

Total number of grid points                  ...    16333
Total number of batches                      ...      261
Average number of points per batch           ...       62
Average number of grid points per atom       ...     1256
Average number of shells per batch           ...    51.22 (81.31%)
Average number of basis functions per batch  ...   114.56 (83.62%)
Average number of large shells per batch     ...    42.89 (83.73%)
Average number of large basis fcns per batch ...    92.33 (80.60%)
Maximum spatial batch extension              ...   3.68,  5.34, 11.88 au
Average spatial batch extension              ...   0.12,  0.12,  0.18 au

Time for grid setup =    0.052 sec

------------------------------
INITIAL GUESS: MODEL POTENTIAL
------------------------------
Loading Hartree-Fock densities                     ... done
Calculating cut-offs                               ... done
Setting up the integral package                    ... done
Initializing the effective Hamiltonian             ... done
Starting the Coulomb interaction                   ... done (   0.0 sec)
Reading the grid                                   ... done
Mapping shells                                     ... done
Starting the XC term evaluation                    ... done (   0.0 sec)
  promolecular density results
     # of electrons  =     58.997685719
     EX              =    -51.724492959
     EC              =     -2.064018902
     EX+EC           =    -53.788511862
Transforming the Hamiltonian                       ... done (   0.0 sec)
Diagonalizing the Hamiltonian                      ... done (   0.0 sec)
Back transforming the eigenvectors                 ... done (   0.0 sec)
Now organizing SCF variables                       ... done
                      ------------------
                      INITIAL GUESS DONE (   0.2 sec)
                      ------------------

--------------------
CPCM SOLVATION MODEL
--------------------
CPCM parameters:
  Epsilon                                         ...      80.4000
  Refrac                                          ...       1.3300
  Rsolv                                           ...       1.3000
  Surface type                                    ...    GEPOL SES
  Epsilon function type                           ...         CPCM
Radii:
 Radius for C  used is    3.7795 Bohr (=   2.0000 Ang.)
 Radius for N  used is    3.4582 Bohr (=   1.8300 Ang.)
 Radius for O  used is    3.2503 Bohr (=   1.7200 Ang.)
 Radius for H  used is    2.4566 Bohr (=   1.3000 Ang.)
Calculating surface                               ...        done! (  0.0s)
GEPOL surface points                              ...          405
GEPOL Volume                                      ...     806.8498
GEPOL Surface-area                                ...     482.6510
Calculating surface distance matrix               ...        done! (  0.0s)
Performing Cholesky decomposition & store         ...        done! (  0.0s)
Overall time for CPCM initialization              ...                 0.0s
--------------
SCF ITERATIONS
--------------
ITER       Energy         Delta-E        Max-DP      RMS-DP      [F,P]     Damp
               ***  Starting incremental Fock matrix formation  ***
  0   -414.4279565375   0.000000000000 0.10583676  0.00377794  0.2677736 0.7000
  1   -414.5546254767  -0.126668939196 0.06661929  0.00225275  0.0991785 0.7000
                               ***Turning on DIIS***
  2   -414.5933936551  -0.038768178333 0.06967128  0.00283281  0.0342812 0.0000
  3   -414.6701822204  -0.076788565298 0.05175383  0.00160350  0.0558112 0.0000
  4   -414.6807349559  -0.010552735527 0.00960855  0.00039714  0.0172028 0.0000
                      *** Initiating the SOSCF procedure ***
                           *** Shutting down DIIS ***
                      *** Re-Reading the Fockian *** 
                      *** Removing any level shift *** 
ITER      Energy       Delta-E        Grad      Rot      Max-DP    RMS-DP
  5   -414.68224200  -0.0015070486  0.000731  0.000731  0.003423  0.000107
               *** Restarting incremental Fock matrix formation ***
  6   -414.68228371  -0.0000417064  0.000739  0.002984  0.002723  0.000086
  7   -414.68227147   0.0000122433  0.001034  0.001346  0.001779  0.000052
  8   -414.68229201  -0.0000205428  0.000161  0.000407  0.000615  0.000020
  9   -414.68229141   0.0000005955  0.000223  0.000261  0.000390  0.000012
 10   -414.68229255  -0.0000011368  0.000011  0.000055  0.000065  0.000002
 11   -414.68229255   0.0000000044  0.000016  0.000031  0.000036  0.000001
 12   -414.68229256  -0.0000000090  0.000003  0.000008  0.000012  0.000000
 13   -414.68229256   0.0000000001  0.000005  0.000005  0.000008  0.000000
                  ***Gradient check signals convergence***
              ***Rediagonalizing the Fockian in SOSCF/NRSCF***

               *****************************************************
               *                     SUCCESS                       *
               *           SCF CONVERGED AFTER  14 CYCLES          *
               *****************************************************

Setting up the final grid:

General Integration Accuracy     IntAcc      ...  4.670
Radial Grid Type                 RadialGrid  ... Gauss-Chebyshev
Angular Grid (max. acc.)         AngularGrid ... Lebedev-302
Angular grid pruning method      GridPruning ... 3 (G Style)
Weight generation scheme         WeightScheme... Becke
Basis function cutoff            BFCut       ...    1.0000e-11
Integration weight cutoff        WCut        ...    1.0000e-14
Grids for H and He will be reduced by one unit

# of grid points (after initial pruning)     ...  66666 (   0.0 sec)
# of grid points (after weights+screening)   ...  61581 (   0.0 sec)
nearest neighbour list constructed           ...    0.0 sec
Grid point re-assignment to atoms done       ...    0.0 sec
Grid point division into batches done        ...    0.3 sec
Reduced shell lists constructed in    0.3 sec

Total number of grid points                  ...    61581
Total number of batches                      ...      970
Average number of points per batch           ...       63
Average number of grid points per atom       ...     4737
Average number of shells per batch           ...    51.90 (82.39%)
Average number of basis functions per batch  ...   115.48 (84.29%)
Average number of large shells per batch     ...    41.05 (79.09%)
Average number of large basis fcns per batch ...    86.89 (75.24%)
Maximum spatial batch extension              ...   3.57,  4.10, 10.24 au
Average spatial batch extension              ...   0.08,  0.08,  0.09 au

Final grid set up in    0.3 sec
Final integration                            ... done (   0.1 sec)
Change in XC energy                          ...    -0.000158445
Integrated number of electrons               ...    58.000075066
Previous integrated no of electrons          ...    58.000562717

----------------
TOTAL SCF ENERGY
----------------

Total Energy       :         -414.68245100 Eh          -11284.08316 eV

Components:
Nuclear Repulsion  :          374.91811125 Eh           10202.04047 eV
Electronic Energy  :         -789.60056225 Eh          -21486.12363 eV
One Electron Energy:        -1293.73384668 Eh          -35204.28772 eV
Two Electron Energy:          504.13328443 Eh           13718.16409 eV
CPCM Dielectric    :           -0.13063116 Eh              -3.55465 eV

Virial components:
Potential Energy   :         -826.21785136 Eh          -22482.53073 eV
Kinetic Energy     :          411.53540035 Eh           11198.44756 eV
Virial Ratio       :            2.00764710


DFT components:
N(Alpha)           :       29.000037532814 electrons
N(Beta)            :       29.000037532814 electrons
N(Total)           :       58.000075065627 electrons
E(X)               :      -41.366851804997 Eh       
E(C)               :       -2.393243175209 Eh       
E(XC)              :      -43.760094980206 Eh       
DFET-embed. en.    :        0.000000000000 Eh       
CPCM Solvation Model Properties:
Surface-charge          :           -1.01174292
Charge-correction       :            0.00190799 Eh               0.05192 eV
Free-energy (cav+disp)  :            0.00356200 Eh               0.09693 eV
Corrected G(solv)       :         -414.67698101 Eh          -11283.93432 eV

---------------
SCF CONVERGENCE
---------------

  Last Energy change         ...   -1.2903e-11  Tolerance :   1.0000e-08
  Last MAX-Density change    ...    1.3321e-06  Tolerance :   1.0000e-07
  Last RMS-Density change    ...    3.6858e-08  Tolerance :   5.0000e-09
  Last Orbital Gradient      ...    2.2795e-07  Tolerance :   1.0000e-05
  Last Orbital Rotation      ...    6.9575e-07  Tolerance :   1.0000e-05

             **** THE GBW FILE WAS UPDATED (Uracil_1.gbw) ****
             **** DENSITY FILE WAS UPDATED (Uracil_1.scfp) ****
             **** ENERGY FILE WAS UPDATED (Uracil_1.en.tmp) ****
             **** THE GBW FILE WAS UPDATED (Uracil_1.gbw) ****
             **** DENSITY FILE WAS UPDATED (Uracil_1.scfp) ****
----------------
ORBITAL ENERGIES
----------------

  NO   OCC          E(Eh)            E(eV) 
   0   2.0000     -19.166789      -521.5548 
   1   2.0000     -19.163274      -521.4592 
   2   2.0000     -14.492257      -394.3544 
   3   2.0000     -14.427534      -392.5932 
   4   2.0000     -10.385519      -282.6043 
   5   2.0000     -10.349810      -281.6326 
   6   2.0000     -10.286076      -279.8984 
   7   2.0000     -10.225471      -278.2492 
   8   2.0000      -1.156215       -31.4622 
   9   2.0000      -1.094760       -29.7899 
  10   2.0000      -1.025128       -27.8952 
  11   2.0000      -1.001877       -27.2624 
  12   2.0000      -0.822979       -22.3944 
  13   2.0000      -0.747016       -20.3273 
  14   2.0000      -0.723890       -19.6980 
  15   2.0000      -0.648005       -17.6331 
  16   2.0000      -0.646554       -17.5936 
  17   2.0000      -0.607971       -16.5437 
  18   2.0000      -0.570382       -15.5209 
  19   2.0000      -0.501545       -13.6477 
  20   2.0000      -0.488376       -13.2894 
  21   2.0000      -0.475072       -12.9274 
  22   2.0000      -0.460624       -12.5342 
  23   2.0000      -0.453203       -12.3323 
  24   2.0000      -0.438766       -11.9394 
  25   2.0000      -0.380460       -10.3528 
  26   2.0000      -0.343593        -9.3496 
  27   2.0000      -0.313262        -8.5243 
  28   2.0000      -0.281475        -7.6593 
  29   0.0000      -0.107964        -2.9379 
  30   0.0000      -0.033681        -0.9165 
  31   0.0000       0.031403         0.8545 
  32   0.0000       0.033844         0.9209 
  33   0.0000       0.058421         1.5897 
  34   0.0000       0.095031         2.5859 
  35   0.0000       0.109922         2.9911 
  36   0.0000       0.132622         3.6088 
  37   0.0000       0.166665         4.5352 
  38   0.0000       0.177506         4.8302 
  39   0.0000       0.191640         5.2148 
  40   0.0000       0.224799         6.1171 
  41   0.0000       0.245826         6.6893 
  42   0.0000       0.284375         7.7382 
  43   0.0000       0.293751         7.9934 
  44   0.0000       0.373244        10.1565 
  45   0.0000       0.388593        10.5742 
  46   0.0000       0.396190        10.7809 
  47   0.0000       0.398843        10.8531 
  48   0.0000       0.454160        12.3583 
  49   0.0000       0.481526        13.1030 
  50   0.0000       0.489194        13.3116 
  51   0.0000       0.494242        13.4490 
  52   0.0000       0.541956        14.7474 
  53   0.0000       0.555168        15.1069 
  54   0.0000       0.579556        15.7705 
  55   0.0000       0.583426        15.8758 
  56   0.0000       0.585869        15.9423 
  57   0.0000       0.595529        16.2052 
  58   0.0000       0.615726        16.7548 
  59   0.0000       0.656149        17.8547 
  60   0.0000       0.678637        18.4666 
  61   0.0000       0.705095        19.1866 
  62   0.0000       0.730873        19.8881 
  63   0.0000       0.762757        20.7557 
  64   0.0000       0.770290        20.9607 
  65   0.0000       0.779445        21.2098 
  66   0.0000       0.819781        22.3074 
  67   0.0000       0.835794        22.7431 
  68   0.0000       0.838466        22.8158 
  69   0.0000       0.956076        26.0161 
  70   0.0000       0.994918        27.0731 
  71   0.0000       1.016487        27.6600 
  72   0.0000       1.038932        28.2708 
  73   0.0000       1.050891        28.5962 
  74   0.0000       1.068693        29.0806 
  75   0.0000       1.096333        29.8327 
  76   0.0000       1.111160        30.2362 
  77   0.0000       1.161403        31.6034 
  78   0.0000       1.183629        32.2082 
  79   0.0000       1.217726        33.1360 
  80   0.0000       1.257484        34.2179 
  81   0.0000       1.264441        34.4072 
  82   0.0000       1.341953        36.5164 
  83   0.0000       1.376976        37.4694 
  84   0.0000       1.410433        38.3798 
  85   0.0000       1.486727        40.4559 
  86   0.0000       1.535610        41.7861 
  87   0.0000       1.572869        42.7999 
  88   0.0000       1.574349        42.8402 
  89   0.0000       1.591314        43.3018 
  90   0.0000       1.665960        45.3331 
  91   0.0000       1.687693        45.9245 
  92   0.0000       1.689987        45.9869 
  93   0.0000       1.746837        47.5338 
  94   0.0000       1.796136        48.8753 
  95   0.0000       1.819087        49.4999 
  96   0.0000       1.836733        49.9800 
  97   0.0000       1.867650        50.8213 
  98   0.0000       1.915265        52.1170 
  99   0.0000       1.942206        52.8501 
 100   0.0000       1.978794        53.8457 
 101   0.0000       2.005883        54.5828 
 102   0.0000       2.013743        54.7967 
 103   0.0000       2.031150        55.2704 
 104   0.0000       2.075224        56.4697 
 105   0.0000       2.139133        58.2088 
 106   0.0000       2.187254        59.5182 
 107   0.0000       2.207208        60.0612 
 108   0.0000       2.230297        60.6895 
 109   0.0000       2.273339        61.8607 
 110   0.0000       2.337334        63.6021 
 111   0.0000       2.411413        65.6179 
 112   0.0000       2.433652        66.2230 
 113   0.0000       2.521732        68.6198 
 114   0.0000       2.538470        69.0753 
 115   0.0000       2.581535        70.2471 
 116   0.0000       2.594482        70.5994 
 117   0.0000       2.625246        71.4366 
 118   0.0000       2.655811        72.2683 
 119   0.0000       2.668881        72.6239 
 120   0.0000       2.727472        74.2183 
 121   0.0000       2.737255        74.4845 
 122   0.0000       2.796223        76.0891 
 123   0.0000       2.810723        76.4837 
 124   0.0000       2.882072        78.4252 
 125   0.0000       2.918539        79.4175 
 126   0.0000       3.020301        82.1866 
 127   0.0000       3.074270        83.6551 
 128   0.0000       3.096532        84.2609 
 129   0.0000       3.103246        84.4436 
 130   0.0000       3.183321        86.6226 
 131   0.0000       3.316181        90.2379 
 132   0.0000       3.413285        92.8802 
 133   0.0000       3.487827        94.9086 
 134   0.0000       3.531403        96.0944 
 135   0.0000       3.614576        98.3576 
 136   0.0000       3.741076       101.7999 

                    ********************************
                    * MULLIKEN POPULATION ANALYSIS *
                    ********************************

-----------------------
MULLIKEN ATOMIC CHARGES
-----------------------
   0 C :   -0.080972
   1 C :    0.199852
   2 N :   -0.068142
   3 C :    0.184484
   4 N :    0.126370
   5 C :    0.129422
   6 O :   -0.201298
   7 O :   -0.204211
   8 H :    0.094308
   9 H :    0.224797
  10 H :    0.265157
  11 H :    0.061944
  12 H :    0.268289
Sum of atomic charges:    1.0000000

--------------------------------
MULLIKEN REDUCED ORBITAL CHARGES
--------------------------------
  0 C s       :     3.221951  s :     3.221951
      pz      :     1.076723  p :     2.829170
      px      :     0.885003
      py      :     0.867444
      dz2     :     0.003007  d :     0.029852
      dxz     :     0.002575
      dyz     :     0.004827
      dx2y2   :     0.008723
      dxy     :     0.010720
  1 C s       :     3.081908  s :     3.081908
      pz      :     0.867143  p :     2.664600
      px      :     0.819096
      py      :     0.978362
      dz2     :     0.004716  d :     0.053640
      dxz     :     0.008707
      dyz     :     0.008808
      dx2y2   :     0.014859
      dxy     :     0.016550
  2 N s       :     3.334147  s :     3.334147
      pz      :     1.546726  p :     3.713043
      px      :     1.031586
      py      :     1.134731
      dz2     :     0.002152  d :     0.020951
      dxz     :     0.004057
      dyz     :     0.001571
      dx2y2   :     0.005618
      dxy     :     0.007554
  3 C s       :     2.977633  s :     2.977633
      pz      :     0.870504  p :     2.700722
      px      :     0.911903
      py      :     0.918316
      dz2     :     0.007963  d :     0.137161
      dxz     :     0.029463
      dyz     :     0.011455
      dx2y2   :     0.046355
      dxy     :     0.041925
  4 N s       :     3.234102  s :     3.234102
      pz      :     1.279181  p :     3.615502
      px      :     1.189047
      py      :     1.147273
      dz2     :     0.003381  d :     0.024026
      dxz     :     0.004587
      dyz     :     0.004407
      dx2y2   :     0.006635
      dxy     :     0.005016
  5 C s       :     3.018124  s :     3.018124
      pz      :     0.857211  p :     2.737617
      px      :     0.949720
      py      :     0.930686
      dz2     :     0.008051  d :     0.114836
      dxz     :     0.010480
      dyz     :     0.020360
      dx2y2   :     0.027891
      dxy     :     0.048054
  6 O s       :     3.728129  s :     3.728129
      pz      :     1.398827  p :     4.454422
      px      :     1.339615
      py      :     1.715980
      dz2     :     0.002198  d :     0.018747
      dxz     :     0.005433
      dyz     :     0.000662
      dx2y2   :     0.005672
      dxy     :     0.004783
  7 O s       :     3.730440  s :     3.730440
      pz      :     1.333751  p :     4.455389
      px      :     1.795148
      py      :     1.326490
      dz2     :     0.002310  d :     0.018381
      dxz     :     0.000185
      dyz     :     0.006054
      dx2y2   :     0.006183
      dxy     :     0.003649
  8 H s       :     0.882724  s :     0.882724
      pz      :     0.003549  p :     0.022968
      px      :     0.010732
      py      :     0.008687
  9 H s       :     0.731968  s :     0.731968
      pz      :     0.009537  p :     0.043235
      px      :     0.005802
      py      :     0.027896
 10 H s       :     0.686938  s :     0.686938
      pz      :     0.023715  p :     0.047904
      px      :     0.015356
      py      :     0.008833
 11 H s       :     0.913616  s :     0.913616
      pz      :     0.004852  p :     0.024440
      px      :     0.014124
      py      :     0.005464
 12 H s       :     0.683394  s :     0.683394
      pz      :     0.020939  p :     0.048317
      px      :     0.013668
      py      :     0.013711


                     *******************************
                     * LOEWDIN POPULATION ANALYSIS *
                     *******************************

----------------------
LOEWDIN ATOMIC CHARGES
----------------------
   0 C :   -0.085631
   1 C :    0.130676
   2 N :    0.080255
   3 C :    0.115233
   4 N :    0.285849
   5 C :    0.096900
   6 O :   -0.166475
   7 O :   -0.152106
   8 H :    0.073931
   9 H :    0.150842
  10 H :    0.198993
  11 H :    0.070671
  12 H :    0.200861

-------------------------------
LOEWDIN REDUCED ORBITAL CHARGES
-------------------------------
  0 C s       :     2.867845  s :     2.867845
      pz      :     1.064122  p :     3.134295
      px      :     1.025096
      py      :     1.045078
      dz2     :     0.007545  d :     0.083490
      dxz     :     0.005077
      dyz     :     0.010268
      dx2y2   :     0.026855
      dxy     :     0.033745
  1 C s       :     2.850688  s :     2.850688
      pz      :     0.862993  p :     2.891064
      px      :     0.947481
      py      :     1.080591
      dz2     :     0.010297  d :     0.127572
      dxz     :     0.018182
      dyz     :     0.018344
      dx2y2   :     0.037659
      dxy     :     0.043090
  2 N s       :     3.034544  s :     3.034544
      pz      :     1.488208  p :     3.829381
      px      :     1.152766
      py      :     1.188407
      dz2     :     0.004488  d :     0.055820
      dxz     :     0.008262
      dyz     :     0.002904
      dx2y2   :     0.018805
      dxy     :     0.021362
  3 C s       :     2.789414  s :     2.789414
      pz      :     0.858423  p :     2.792933
      px      :     1.013976
      py      :     0.920533
      dz2     :     0.017689  d :     0.302421
      dxz     :     0.056005
      dyz     :     0.022154
      dx2y2   :     0.110145
      dxy     :     0.096428
  4 N s       :     2.984310  s :     2.984310
      pz      :     1.253528  p :     3.664871
      px      :     1.211682
      py      :     1.199662
      dz2     :     0.009354  d :     0.064970
      dxz     :     0.011651
      dyz     :     0.010458
      dx2y2   :     0.018706
      dxy     :     0.014802
  5 C s       :     2.832757  s :     2.832757
      pz      :     0.836540  p :     2.813407
      px      :     0.963927
      py      :     1.012941
      dz2     :     0.017590  d :     0.256936
      dxz     :     0.019914
      dyz     :     0.039050
      dx2y2   :     0.067518
      dxy     :     0.112864
  6 O s       :     3.543662  s :     3.543662
      pz      :     1.397408  p :     4.590851
      px      :     1.465662
      py      :     1.727782
      dz2     :     0.004538  d :     0.031961
      dxz     :     0.007052
      dyz     :     0.000801
      dx2y2   :     0.010988
      dxy     :     0.008582
  7 O s       :     3.543372  s :     3.543372
      pz      :     1.337889  p :     4.577384
      px      :     1.788401
      py      :     1.451094
      dz2     :     0.004261  d :     0.031350
      dxz     :     0.000274
      dyz     :     0.008391
      dx2y2   :     0.012639
      dxy     :     0.005784
  8 H s       :     0.856219  s :     0.856219
      pz      :     0.011250  p :     0.069850
      px      :     0.033209
      py      :     0.025391
  9 H s       :     0.728116  s :     0.728116
      pz      :     0.033177  p :     0.121042
      px      :     0.014387
      py      :     0.073478
 10 H s       :     0.682795  s :     0.682795
      pz      :     0.054016  p :     0.118213
      px      :     0.041332
      py      :     0.022864
 11 H s       :     0.856262  s :     0.856262
      pz      :     0.016461  p :     0.073067
      px      :     0.040901
      py      :     0.015705
 12 H s       :     0.680671  s :     0.680671
      pz      :     0.047088  p :     0.118468
      px      :     0.036460
      py      :     0.034920


                      *****************************
                      * MAYER POPULATION ANALYSIS *
                      *****************************

  NA   - Mulliken gross atomic population
  ZA   - Total nuclear charge
  QA   - Mulliken gross atomic charge
  VA   - Mayer's total valence
  BVA  - Mayer's bonded valence
  FA   - Mayer's free valence

  ATOM       NA         ZA         QA         VA         BVA        FA
  0 C      6.0810     6.0000    -0.0810     3.8503     3.8503     0.0000
  1 C      5.8001     6.0000     0.1999     3.8672     3.8672    -0.0000
  2 N      7.0681     7.0000    -0.0681     3.3677     3.3677    -0.0000
  3 C      5.8155     6.0000     0.1845     4.4068     4.4068    -0.0000
  4 N      6.8736     7.0000     0.1264     3.4955     3.4955    -0.0000
  5 C      5.8706     6.0000     0.1294     4.2962     4.2962    -0.0000
  6 O      8.2013     8.0000    -0.2013     2.3057     2.3057    -0.0000
  7 O      8.2042     8.0000    -0.2042     2.2831     2.2831    -0.0000
  8 H      0.9057     1.0000     0.0943     0.9825     0.9825    -0.0000
  9 H      0.7752     1.0000     0.2248     0.9637     0.9637     0.0000
 10 H      0.7348     1.0000     0.2652     0.9598     0.9598    -0.0000
 11 H      0.9381     1.0000     0.0619     1.0033     1.0033    -0.0000
 12 H      0.7317     1.0000     0.2683     0.9555     0.9555    -0.0000

  Mayer bond orders larger than 0.100000
B(  0-C ,  1-C ) :   1.6188 B(  0-C ,  5-C ) :   1.1129 B(  0-C , 11-H ) :   0.9822 
B(  1-C ,  2-N ) :   1.1418 B(  1-C ,  8-H ) :   0.9556 B(  2-N ,  3-C ) :   1.2024 
B(  2-N ,  9-H ) :   0.8852 B(  3-C ,  4-N ) :   0.9286 B(  3-C ,  6-O ) :   2.1608 
B(  4-N ,  5-C ) :   0.9188 B(  4-N , 10-H ) :   0.8510 B(  4-N , 12-H ) :   0.8509 
B(  5-C ,  7-O ) :   2.1256 

-------
TIMINGS
-------

Total SCF time: 0 days 0 hours 0 min 10 sec 

Total time                  ....      10.088 sec
Sum of individual times     ....       9.716 sec  ( 96.3%)

Fock matrix formation       ....       9.084 sec  ( 90.0%)
  XC integration            ....       0.439 sec  (  4.8% of F)
    Basis function eval.    ....       0.096 sec  ( 21.8% of XC)
    Density eval.           ....       0.065 sec  ( 14.7% of XC)
    XC-Functional eval.     ....       0.021 sec  (  4.8% of XC)
    XC-Potential eval.      ....       0.085 sec  ( 19.3% of XC)
Diagonalization             ....       0.025 sec  (  0.3%)
Density matrix formation    ....       0.012 sec  (  0.1%)
Population analysis         ....       0.004 sec  (  0.0%)
Initial guess               ....       0.158 sec  (  1.6%)
Orbital Transformation      ....       0.000 sec  (  0.0%)
Orbital Orthonormalization  ....       0.000 sec  (  0.0%)
DIIS solution               ....       0.009 sec  (  0.1%)
SOSCF solution              ....       0.024 sec  (  0.2%)
Grid generation             ....       0.400 sec  (  4.0%)

-------------------------   --------------------
FINAL SINGLE POINT ENERGY      -414.682451001108
-------------------------   --------------------



           ************************************************************
           *        Program running with 16 parallel MPI-processes    *
           *              working on a common directory               *
           ************************************************************
------------------------------------------------------------------------------
                         ORCA SCF GRADIENT CALCULATION
------------------------------------------------------------------------------

Gradient of the Kohn-Sham DFT energy:
Kohn-Sham wavefunction type      ... RKS
Hartree-Fock exchange scaling    ...    0.200
Number of operators              ...    1
Number of atoms                  ...   13
Basis set dimensions             ...  137
Integral neglect threshold       ... 2.5e-11
Integral primitive cutoff        ... 2.5e-12

Nuclear repulsion gradient       ... done
One Electron Gradient            ... done
Pre-screening matrix             ... done
Starting the two electron gradient:
Two electron gradient done
Exchange-correlation gradient    ... done

------------------
CARTESIAN GRADIENT
------------------

   1   C   :    0.026381310   -0.017340383    0.002387014
   2   C   :   -0.008554789    0.012851389   -0.002092755
   3   N   :    0.008557514   -0.003005101    0.000428134
   4   C   :    0.046770553    0.080699107   -0.015835491
   5   N   :    0.019300904   -0.016953195    0.000438813
   6   C   :   -0.088957913   -0.062758570    0.015705835
   7   O   :   -0.007076550    0.017791355   -0.003000834
   8   O   :   -0.008215519   -0.005236555    0.001365815
   9   H   :    0.000932887    0.003801501   -0.000797687
  10   H   :    0.001769981    0.000040070   -0.000230360
  11   H   :    0.006457596    0.000069648    0.020409686
  12   H   :   -0.002213963   -0.002650486    0.000623983
  13   H   :    0.004847988   -0.007308782   -0.019402153

Difference to translation invariance:
           :   -0.0000000000   -0.0000000000   -0.0000000000

Norm of the cartesian gradient     ...    0.1563731252
RMS gradient                       ...    0.0250397398
MAX gradient                       ...    0.0889579128

-------
TIMINGS
-------

Total SCF gradient time            ...        1.195 sec

One electron gradient       ....       0.007 sec  (  0.6%)
Prescreening matrices       ....       0.010 sec  (  0.8%)
Two electron gradient       ....       0.607 sec  ( 50.8%)
XC gradient                 ....       0.252 sec  ( 21.1%)
CPCM gradient               ....       0.139 sec  ( 11.6%)
   A-Matrix (El+Nuc)        ....       0.007 sec  (  0.6%)
   Potential                ....       0.132 sec  ( 11.1%)
------------------------------------------------------------------------------
                         ORCA GEOMETRY RELAXATION STEP
------------------------------------------------------------------------------

Reading the OPT-File                    .... done
Getting information on internals        .... done
Copying old internal coords+grads       .... done
Making the new internal coordinates     .... (new redundants).... done
Validating the new internal coordinates .... (new redundants).... done
Calculating the B-matrix                .... done
Calculating the G,G- and P matrices     .... done
Transforming gradient to internals      .... done
Projecting the internal gradient        .... done
Number of atoms                         ....  13
Number of internal coordinates          ....  62
Current Energy                          ....  -414.682451001 Eh
Current gradient norm                   ....     0.156373125 Eh/bohr
Maximum allowed component of the step   ....  0.300
Current trust radius                    ....  0.300
Evaluating the initial hessian          ....  (Almloef) done
Projecting the Hessian                  .... done
Forming the augmented Hessian           .... done
Diagonalizing the augmented Hessian     .... done
Last element of RFO vector              ....  0.966569034
Lowest eigenvalues of augmented Hessian:
 -0.039657872  0.021627881  0.024932289  0.028932141  0.029999832
Length of the computed step             ....  0.265274913
The final length of the internal step   ....  0.265274913
Converting the step to cartesian space:
 Initial RMS(Int)=    0.0336899476
Transforming coordinates:
 Iter   0:  RMS(Cart)=    0.0645466690 RMS(Int)=    0.0335809999
 Iter   1:  RMS(Cart)=    0.0012435846 RMS(Int)=    0.0007038712
 Iter   2:  RMS(Cart)=    0.0000338654 RMS(Int)=    0.0000188203
 Iter   3:  RMS(Cart)=    0.0000012569 RMS(Int)=    0.0000009746
 Iter   4:  RMS(Cart)=    0.0000000635 RMS(Int)=    0.0000000409
done
Storing new coordinates                 .... done

                                .--------------------.
          ----------------------|Geometry convergence|-------------------------
          Item                value                   Tolerance       Converged
          ---------------------------------------------------------------------
          RMS gradient        0.0192285623            0.0001000000      NO
          MAX gradient        0.0891014454            0.0003000000      NO
          RMS step            0.0336899476            0.0020000000      NO
          MAX step            0.1464899074            0.0040000000      NO
          ........................................................
          Max(Bonds)      0.0775      Max(Angles)    3.98
          Max(Dihed)        0.54      Max(Improp)    0.00
          ---------------------------------------------------------------------

The optimization has not yet converged - more geometry cycles are needed


    ---------------------------------------------------------------------------
                         Redundant Internal Coordinates
                            (Angstroem and degrees)

        Definition                    Value    dE/dq     Step     New-Value
    ----------------------------------------------------------------------------
     1. B(C   1,C   0)                1.3366 -0.028471  0.0179    1.3545   
     2. B(N   2,C   1)                1.3709 -0.014676  0.0108    1.3817   
     3. B(C   3,N   2)                1.3610  0.007327 -0.0061    1.3549   
     4. B(N   4,C   3)                1.3763 -0.089101  0.0762    1.4525   
     5. B(C   5,N   4)                1.3819 -0.088665  0.0775    1.4595   
     6. B(C   5,C   0)                1.4678  0.018031 -0.0184    1.4494   
     7. B(O   6,C   3)                1.2113  0.000979 -0.0005    1.2108   
     8. B(O   7,C   5)                1.2121 -0.005380  0.0026    1.2146   
     9. B(H   8,C   1)                1.0889 -0.001816  0.0024    1.0913   
    10. B(H   9,N   2)                1.0194 -0.000312  0.0004    1.0197   
    11. B(H  10,N   4)                1.0182 -0.019517  0.0225    1.0406   
    12. B(H  11,C   0)                1.0827 -0.003184  0.0041    1.0868   
    13. B(H  12,N   4)                1.0184 -0.019697  0.0227    1.0411   
    14. A(C   5,C   0,H  11)          118.99  0.009662   -1.22    117.77   
    15. A(C   1,C   0,H  11)          124.23  0.006577   -0.70    123.53   
    16. A(C   1,C   0,C   5)          116.79 -0.016238    1.91    118.70   
    17. A(N   2,C   1,H   8)          116.83  0.011910   -1.38    115.45   
    18. A(C   0,C   1,H   8)          122.24  0.004646   -0.30    121.94   
    19. A(C   0,C   1,N   2)          120.93 -0.016556    1.68    122.61   
    20. A(C   3,N   2,H   9)          116.59  0.006311   -0.70    115.88   
    21. A(C   1,N   2,C   3)          123.33 -0.009303    0.93    124.26   
    22. A(C   1,N   2,H   9)          120.08  0.002992   -0.22    119.86   
    23. A(N   2,C   3,O   6)          127.36  0.009393   -1.00    126.35   
    24. A(N   2,C   3,N   4)          118.95  0.025577   -2.98    115.97   
    25. A(N   4,C   3,O   6)          113.70 -0.034969    3.98    117.68   
    26. A(C   3,N   4,H  10)          109.93  0.006098   -1.05    108.88   
    27. A(C   5,N   4,H  12)          109.49  0.005193   -0.81    108.68   
    28. A(C   3,N   4,C   5)          119.04 -0.014088    2.04    121.08   
    29. A(C   3,N   4,H  12)          109.15  0.005639   -0.89    108.26   
    30. A(C   5,N   4,H  10)          110.21  0.005623   -0.95    109.26   
    31. A(H  10,N   4,H  12)           96.72 -0.006735    1.52     98.24   
    32. A(C   0,C   5,N   4)          120.95  0.030614   -3.58    117.37   
    33. A(N   4,C   5,O   7)          113.74 -0.024712    2.84    116.58   
    34. A(C   0,C   5,O   7)          125.31 -0.005902    0.74    126.05   
    35. D(H   8,C   1,C   0,C   5)    179.94  0.000053   -0.01    179.93   
    36. D(N   2,C   1,C   0,H  11)   -179.84 -0.000004    0.03   -179.80   
    37. D(N   2,C   1,C   0,C   5)      0.06  0.000100   -0.03      0.03   
    38. D(H   8,C   1,C   0,H  11)      0.04 -0.000050    0.06      0.10   
    39. D(C   3,N   2,C   1,H   8)    179.90  0.000052    0.01    179.91   
    40. D(C   3,N   2,C   1,C   0)     -0.22  0.000001    0.03     -0.19   
    41. D(H   9,N   2,C   1,C   0)    179.62 -0.000065    0.06    179.68   
    42. D(H   9,N   2,C   1,H   8)     -0.26 -0.000014    0.03     -0.23   
    43. D(O   6,C   3,N   2,H   9)     -0.04  0.000158   -0.11     -0.15   
    44. D(O   6,C   3,N   2,C   1)    179.80  0.000090   -0.08    179.72   
    45. D(N   4,C   3,N   2,H   9)    179.75  0.000117   -0.09    179.66   
    46. D(N   4,C   3,N   2,C   1)     -0.40  0.000050   -0.06     -0.47   
    47. D(H  10,N   4,C   3,N   2)    129.60  0.001266   -0.48    129.11   
    48. D(C   5,N   4,C   3,O   6)   -179.02 -0.000243    0.11   -178.90   
    49. D(C   5,N   4,C   3,N   2)      1.16 -0.000278    0.11      1.27   
    50. D(H  12,N   4,C   3,O   6)     54.35 -0.001073    0.39     54.73   
    51. D(H  12,N   4,C   3,N   2)   -125.48 -0.001109    0.38   -125.09   
    52. D(H  10,N   4,C   3,O   6)    -50.58  0.001302   -0.48    -51.06   
    53. D(O   7,C   5,N   4,H  12)    -54.69  0.001247   -0.42    -55.11   
    54. D(O   7,C   5,N   4,C   3)    178.83  0.000249   -0.12    178.72   
    55. D(C   0,C   5,N   4,H  12)    125.14  0.001193   -0.39    124.75   
    56. D(C   0,C   5,N   4,H  10)   -129.64 -0.001535    0.54   -129.10   
    57. D(C   0,C   5,N   4,C   3)     -1.34  0.000195   -0.09     -1.43   
    58. D(O   7,C   5,C   0,H  11)      0.43  0.000006    0.01      0.44   
    59. D(O   7,C   5,C   0,C   1)   -179.47 -0.000091    0.07   -179.40   
    60. D(O   7,C   5,N   4,H  10)     50.53 -0.001481    0.51     51.04   
    61. D(N   4,C   5,C   0,H  11)   -179.38  0.000088   -0.03   -179.40   
    62. D(N   4,C   5,C   0,C   1)      0.72 -0.000008    0.03      0.76   
    ----------------------------------------------------------------------------

         *************************************************************
         *                GEOMETRY OPTIMIZATION CYCLE   2            *
         *************************************************************
---------------------------------
CARTESIAN COORDINATES (ANGSTROEM)
---------------------------------
  C      1.423840    0.570655   -0.071011
  C      1.212112   -0.741228    0.192010
  N     -0.053481   -1.279758    0.325210
  C     -1.200948   -0.568124    0.213284
  N     -1.045232    0.850750   -0.054616
  C      0.277448    1.445316   -0.218140
  O     -2.327034   -1.000638    0.317969
  O      0.312369    2.634388   -0.463547
  H      2.036503   -1.446238    0.311646
  H     -0.163956   -2.274853    0.518595
  H     -1.640155    1.107277   -0.868972
  H      2.412256    1.008686   -0.181648
  H     -1.560581    1.379968    0.679020

----------------------------
CARTESIAN COORDINATES (A.U.)
----------------------------
  NO LB      ZA    FRAG     MASS         X           Y           Z
   0 C     6.0000    0    12.011    2.690667    1.078382   -0.134190
   1 C     6.0000    0    12.011    2.290559   -1.400718    0.362846
   2 N     7.0000    0    14.007   -0.101065   -2.418393    0.614557
   3 C     6.0000    0    12.011   -2.269462   -1.073599    0.403049
   4 N     7.0000    0    14.007   -1.975201    1.607684   -0.103209
   5 C     6.0000    0    12.011    0.524300    2.731251   -0.412224
   6 O     8.0000    0    15.999   -4.397457   -1.890931    0.600874
   7 O     8.0000    0    15.999    0.590292    4.978272   -0.875978
   8 H     1.0000    0     1.008    3.848433   -2.732994    0.588926
   9 H     1.0000    0     1.008   -0.309833   -4.298850    0.980002
  10 H     1.0000    0     1.008   -3.099444    2.092451   -1.642119
  11 H     1.0000    0     1.008    4.558504    1.906141   -0.343266
  12 H     1.0000    0     1.008   -2.949071    2.607762    1.283161

--------------------------------
INTERNAL COORDINATES (ANGSTROEM)
--------------------------------
 C      0   0   0     0.000000000000     0.00000000     0.00000000
 C      1   0   0     1.354638848020     0.00000000     0.00000000
 N      2   1   0     1.381840273162   122.63496839     0.00000000
 C      3   2   1     1.354854021783   124.26487472   359.81274324
 N      4   3   2     1.452315738964   115.94987869   359.53507202
 C      1   2   3     1.449445538491   118.71730578     0.02970439
 O      4   3   2     1.210825148664   126.36266634   179.72402102
 O      6   1   2     1.214634753659   126.05165311   180.59821582
 H      2   1   3     1.091317372495   121.92735139   179.90110541
 H      3   2   1     1.019713831980   119.85562591   179.67911108
 H      5   4   3     1.040632751421   108.89847011   129.10536742
 H      1   2   3     1.086775007604   123.52177802   180.19681159
 H      5   4   3     1.041094704542   108.27399968   234.91187866

---------------------------
INTERNAL COORDINATES (A.U.)
---------------------------
 C      0   0   0     0.000000000000     0.00000000     0.00000000
 C      1   0   0     2.559896433129     0.00000000     0.00000000
 N      2   1   0     2.611299677100   122.63496839     0.00000000
 C      3   2   1     2.560303052612   124.26487472   359.81274324
 N      4   3   2     2.744479006625   115.94987869   359.53507202
 C      1   2   3     2.739055113782   118.71730578     0.02970439
 O      4   3   2     2.288127927039   126.36266634   179.72402102
 O      6   1   2     2.295327037159   126.05165311   180.59821582
 H      2   1   3     2.062290959206   121.92735139   179.90110541
 H      3   2   1     1.926979877414   119.85562591   179.67911108
 H      5   4   3     1.966510906175   108.89847011   129.10536742
 H      1   2   3     2.053707133563   123.52177802   180.19681159
 H      5   4   3     1.967383871060   108.27399968   234.91187866



           ************************************************************
           *        Program running with 16 parallel MPI-processes    *
           *              working on a common directory               *
           ************************************************************


           ************************************************************
           *        Program running with 16 parallel MPI-processes    *
           *              working on a common directory               *
           ************************************************************

Diagonalization of the overlap matrix:
Smallest eigenvalue                        ... 1.305e-03
Time for diagonalization                   ...    0.004 sec
Threshold for overlap eigenvalues          ... 1.000e-08
Number of eigenvalues below threshold      ... 0
Time for construction of square roots      ...    0.003 sec
Total time needed                          ...    0.007 sec

-------------------
DFT GRID GENERATION
-------------------

General Integration Accuracy     IntAcc      ...  4.340
Radial Grid Type                 RadialGrid  ... Gauss-Chebyshev
Angular Grid (max. acc.)         AngularGrid ... Lebedev-110
Angular grid pruning method      GridPruning ... 3 (G Style)
Weight generation scheme         WeightScheme... Becke
Basis function cutoff            BFCut       ...    1.0000e-11
Integration weight cutoff        WCut        ...    1.0000e-14
Grids for H and He will be reduced by one unit

# of grid points (after initial pruning)     ...  17430 (   0.0 sec)
# of grid points (after weights+screening)   ...  16349 (   0.0 sec)
nearest neighbour list constructed           ...    0.0 sec
Grid point re-assignment to atoms done       ...    0.0 sec
Grid point division into batches done        ...    0.0 sec
Reduced shell lists constructed in    0.0 sec

Total number of grid points                  ...    16349
Total number of batches                      ...      262
Average number of points per batch           ...       62
Average number of grid points per atom       ...     1258
Average number of shells per batch           ...    51.17 (81.22%)
Average number of basis functions per batch  ...   114.39 (83.50%)
Average number of large shells per batch     ...    42.72 (83.50%)
Average number of large basis fcns per batch ...    92.61 (80.96%)
Maximum spatial batch extension              ...   4.03,  5.60, 11.98 au
Average spatial batch extension              ...   0.12,  0.12,  0.17 au

Time for grid setup =    0.057 sec


--------------------
CPCM SOLVATION MODEL
--------------------
CPCM parameters:
  Epsilon                                         ...      80.4000
  Refrac                                          ...       1.3300
  Rsolv                                           ...       1.3000
  Surface type                                    ...    GEPOL SES
  Epsilon function type                           ...         CPCM
Radii:
 Radius for C  used is    3.7795 Bohr (=   2.0000 Ang.)
 Radius for N  used is    3.4582 Bohr (=   1.8300 Ang.)
 Radius for O  used is    3.2503 Bohr (=   1.7200 Ang.)
 Radius for H  used is    2.4566 Bohr (=   1.3000 Ang.)
Calculating surface                               ...        done! (  0.0s)
GEPOL surface points                              ...          408
GEPOL Volume                                      ...     818.3608
GEPOL Surface-area                                ...     489.5231
Calculating surface distance matrix               ...        done! (  0.0s)
Performing Cholesky decomposition & store         ...        done! (  0.0s)
Overall time for CPCM initialization              ...                 0.0s
--------------
SCF ITERATIONS
--------------
ITER       Energy         Delta-E        Max-DP      RMS-DP      [F,P]     Damp
               ***  Starting incremental Fock matrix formation  ***
  0   -414.6998888278   0.000000000000 0.01268693  0.00046014  0.0324508 0.7000
  1   -414.7023119332  -0.002423105315 0.01008952  0.00037655  0.0203442 0.7000
                               ***Turning on DIIS***
  2   -414.7040251468  -0.001713213615 0.02637370  0.00093392  0.0125544 0.0000
                      *** Initiating the SOSCF procedure ***
                           *** Shutting down DIIS ***
                      *** Re-Reading the Fockian *** 
                      *** Removing any level shift *** 
ITER      Energy       Delta-E        Grad      Rot      Max-DP    RMS-DP
  3   -414.70822725  -0.0042020995  0.001999  0.001999  0.005427  0.000140
               *** Restarting incremental Fock matrix formation ***
  4   -414.70826918  -0.0000419385  0.001271  0.002481  0.005414  0.000146
  5   -414.70822256   0.0000466276  0.001726  0.002162  0.003018  0.000095
  6   -414.70829667  -0.0000741140  0.000261  0.000862  0.001439  0.000038
  7   -414.70829411   0.0000025593  0.000503  0.000489  0.000905  0.000023
  8   -414.70829843  -0.0000043163  0.000016  0.000034  0.000118  0.000002
  9   -414.70829842   0.0000000047  0.000021  0.000020  0.000070  0.000001
 10   -414.70829844  -0.0000000147  0.000004  0.000009  0.000018  0.000001
 11   -414.70829844  -0.0000000002  0.000005  0.000005  0.000010  0.000000
                  ***Gradient check signals convergence***
              ***Rediagonalizing the Fockian in SOSCF/NRSCF***

               *****************************************************
               *                     SUCCESS                       *
               *           SCF CONVERGED AFTER  12 CYCLES          *
               *****************************************************

Setting up the final grid:

General Integration Accuracy     IntAcc      ...  4.670
Radial Grid Type                 RadialGrid  ... Gauss-Chebyshev
Angular Grid (max. acc.)         AngularGrid ... Lebedev-302
Angular grid pruning method      GridPruning ... 3 (G Style)
Weight generation scheme         WeightScheme... Becke
Basis function cutoff            BFCut       ...    1.0000e-11
Integration weight cutoff        WCut        ...    1.0000e-14
Grids for H and He will be reduced by one unit

# of grid points (after initial pruning)     ...  66666 (   0.0 sec)
# of grid points (after weights+screening)   ...  61631 (   0.0 sec)
nearest neighbour list constructed           ...    0.0 sec
Grid point re-assignment to atoms done       ...    0.0 sec
Grid point division into batches done        ...    0.3 sec
Reduced shell lists constructed in    0.3 sec

Total number of grid points                  ...    61631
Total number of batches                      ...      970
Average number of points per batch           ...       63
Average number of grid points per atom       ...     4741
Average number of shells per batch           ...    51.97 (82.49%)
Average number of basis functions per batch  ...   115.68 (84.44%)
Average number of large shells per batch     ...    40.61 (78.15%)
Average number of large basis fcns per batch ...    85.74 (74.12%)
Maximum spatial batch extension              ...   3.52,  3.99, 10.37 au
Average spatial batch extension              ...   0.08,  0.08,  0.09 au

Final grid set up in    0.4 sec
Final integration                            ... done (   0.2 sec)
Change in XC energy                          ...    -0.000031847
Integrated number of electrons               ...    58.000044843
Previous integrated no of electrons          ...    58.000890886
Total Energy       :         -414.70833029 Eh          -11284.78737 eV
  Last Energy change         ...   -2.9610e-10  Tolerance :   1.0000e-08
  Last MAX-Density change    ...    4.8088e-06  Tolerance :   1.0000e-07
             **** THE GBW FILE WAS UPDATED (Uracil_1.gbw) ****
             **** DENSITY FILE WAS UPDATED (Uracil_1.scfp) ****
             **** ENERGY FILE WAS UPDATED (Uracil_1.en.tmp) ****
             **** THE GBW FILE WAS UPDATED (Uracil_1.gbw) ****
             **** DENSITY FILE WAS UPDATED (Uracil_1.scfp) ****
Total SCF time: 0 days 0 hours 0 min 8 sec 

-------------------------   --------------------
FINAL SINGLE POINT ENERGY      -414.708330285830
-------------------------   --------------------



           ************************************************************
           *        Program running with 16 parallel MPI-processes    *
           *              working on a common directory               *
           ************************************************************
------------------------------------------------------------------------------
                         ORCA SCF GRADIENT CALCULATION
------------------------------------------------------------------------------

Gradient of the Kohn-Sham DFT energy:
Kohn-Sham wavefunction type      ... RKS
Hartree-Fock exchange scaling    ...    0.200
Number of operators              ...    1
Number of atoms                  ...   13
Basis set dimensions             ...  137
Integral neglect threshold       ... 2.5e-11
Integral primitive cutoff        ... 2.5e-12

Nuclear repulsion gradient       ... done
One Electron Gradient            ... done
Pre-screening matrix             ... done
Starting the two electron gradient:
Two electron gradient done
Exchange-correlation gradient    ... done

------------------
CARTESIAN GRADIENT
------------------

   1   C   :    0.018446921    0.000539843   -0.000848349
   2   C   :   -0.002249347    0.002849427   -0.000244146
   3   N   :   -0.005506832   -0.007334613    0.001519591
   4   C   :    0.032670878    0.035863459   -0.007028514
   5   N   :    0.020643515   -0.011285761   -0.000173796
   6   C   :   -0.044861098   -0.039796780    0.009543678
   7   O   :   -0.015664577   -0.003623710    0.001123634
   8   O   :    0.004522592    0.014021437   -0.003017169
   9   H   :    0.001207111    0.001489678   -0.000331091
  10   H   :   -0.000040899    0.000231557   -0.000172068
  11   H   :   -0.004013966    0.004074036    0.003356313
  12   H   :   -0.001054437    0.000420725   -0.000019264
  13   H   :   -0.004099862    0.002550704   -0.003708818

Difference to translation invariance:
           :   -0.0000000000    0.0000000000    0.0000000000

Norm of the cartesian gradient     ...    0.0875043755
RMS gradient                       ...    0.0140119141
MAX gradient                       ...    0.0448610982

-------
TIMINGS
-------

Total SCF gradient time            ...        1.169 sec

One electron gradient       ....       0.007 sec  (  0.6%)
Prescreening matrices       ....       0.010 sec  (  0.8%)
Two electron gradient       ....       0.618 sec  ( 52.9%)
XC gradient                 ....       0.244 sec  ( 20.8%)
CPCM gradient               ....       0.142 sec  ( 12.2%)
   A-Matrix (El+Nuc)        ....       0.006 sec  (  0.5%)
   Potential                ....       0.136 sec  ( 11.6%)
------------------------------------------------------------------------------
                         ORCA GEOMETRY RELAXATION STEP
------------------------------------------------------------------------------

Reading the OPT-File                    .... done
Getting information on internals        .... done
Copying old internal coords+grads       .... done
Making the new internal coordinates     .... (new redundants).... done
Validating the new internal coordinates .... (new redundants).... done
Calculating the B-matrix                .... done
Calculating the G,G- and P matrices     .... done
Transforming gradient to internals      .... done
Projecting the internal gradient        .... done
Number of atoms                         ....  13
Number of internal coordinates          ....  62
Current Energy                          ....  -414.708330286 Eh
Current gradient norm                   ....     0.087504376 Eh/bohr
Maximum allowed component of the step   ....  0.300
Current trust radius                    ....  0.300
Updating the Hessian (BFGS)             .... done
Forming the augmented Hessian           .... done
Diagonalizing the augmented Hessian     .... done
Last element of RFO vector              ....  0.987064629
Lowest eigenvalues of augmented Hessian:
 -0.008524302  0.021627879  0.024933068  0.028932218  0.029999971
Length of the computed step             ....  0.162423867
The final length of the internal step   ....  0.162423867
Converting the step to cartesian space:
 Initial RMS(Int)=    0.0206278517
Transforming coordinates:
 Iter   0:  RMS(Cart)=    0.0292871795 RMS(Int)=    0.7980093810
 Iter   1:  RMS(Cart)=    0.0005211032 RMS(Int)=    0.0002723077
 Iter   2:  RMS(Cart)=    0.0000056415 RMS(Int)=    0.0000052135
 Iter   3:  RMS(Cart)=    0.0000001544 RMS(Int)=    0.0000001188
 Iter   4:  RMS(Cart)=    0.0000000053 RMS(Int)=    0.0000000030
done
Storing new coordinates                 .... done

                                .--------------------.
          ----------------------|Geometry convergence|-------------------------
          Item                value                   Tolerance       Converged
          ---------------------------------------------------------------------
          Energy change      -0.0258792847            0.0000050000      NO
          RMS gradient        0.0070740357            0.0001000000      NO
          MAX gradient        0.0318466408            0.0003000000      NO
          RMS step            0.0206278517            0.0020000000      NO
          MAX step            0.0872466309            0.0040000000      NO
          ........................................................
          Max(Bonds)      0.0462      Max(Angles)    2.53
          Max(Dihed)        1.07      Max(Improp)    0.00
          ---------------------------------------------------------------------

The optimization has not yet converged - more geometry cycles are needed


    ---------------------------------------------------------------------------
                         Redundant Internal Coordinates
                            (Angstroem and degrees)

        Definition                    Value    dE/dq     Step     New-Value
    ----------------------------------------------------------------------------
     1. B(C   1,C   0)                1.3546 -0.004114  0.0042    1.3588   
     2. B(N   2,C   1)                1.3818  0.001206 -0.0021    1.3797   
     3. B(C   3,N   2)                1.3549  0.000426 -0.0009    1.3539   
     4. B(N   4,C   3)                1.4523 -0.026589  0.0385    1.4908   
     5. B(C   5,N   4)                1.4594 -0.031847  0.0462    1.5055   
     6. B(C   5,C   0)                1.4494  0.008368 -0.0139    1.4355   
     7. B(O   6,C   3)                1.2108  0.015962 -0.0112    1.1996   
     8. B(O   7,C   5)                1.2146  0.014464 -0.0100    1.2046   
     9. B(H   8,C   1)                1.0913 -0.000086  0.0002    1.0916   
    10. B(H   9,N   2)                1.0197 -0.000253  0.0005    1.0202   
    11. B(H  10,N   4)                1.0406  0.000678 -0.0005    1.0402   
    12. B(H  11,C   0)                1.0868 -0.000789  0.0017    1.0885   
    13. B(H  12,N   4)                1.0411  0.000706 -0.0005    1.0406   
[...]
     11       0.074289   0.251065  -0.009457  -0.024333  -0.008759   0.027374
     12      -0.001318  -0.006534   0.215687   0.000995  -0.030468   0.003448
     13      -0.003541  -0.046420  -0.227648   0.003630  -0.008105   0.049281
     14      -0.046445  -0.222644   0.042949   0.018883   0.002352  -0.009298
     15      -0.001688   0.007798  -0.113189  -0.002056   0.206867  -0.096290
     16      -0.005350   0.064675   0.075826  -0.005774  -0.013255   0.003994
     17      -0.028617   0.311699  -0.015008  -0.029297  -0.003210   0.002024
     18      -0.003846   0.000443  -0.073216  -0.000082  -0.056547   0.004557
     19      -0.004228  -0.009338  -0.049318   0.000914  -0.001124   0.030382
     20      -0.017263  -0.052826   0.009613   0.004730   0.001227  -0.005813
     21      -0.000769  -0.001790   0.037456   0.000349  -0.030916   0.000097
     22       0.004634  -0.013049   0.137999   0.001764  -0.064376   0.028805
     23       0.016290  -0.067216  -0.029093   0.005602   0.013893  -0.005771
     24      -0.002536   0.001619   0.087926  -0.023077   0.351511  -0.289922
     25      -0.070003   0.010172  -0.362815  -0.173747   0.462980  -0.194132
     26      -0.335291   0.081257   0.074236  -0.863231  -0.105269   0.050206
     27       0.004744  -0.005809  -0.263249   0.001998   0.407414   0.374137
     28       0.013269  -0.007531   0.315986   0.016618   0.034565   0.130845
     29       0.072734  -0.062892  -0.047443   0.080446  -0.018040  -0.033632
     30      -0.134384  -0.461475   0.141746   0.034518   0.157118  -0.104805
     31      -0.011930   0.253812  -0.252102  -0.021322   0.192548  -0.102205
     32       0.038704   0.158119   0.087836  -0.009926  -0.059971   0.020622
     33      -0.025312   0.006807  -0.327024   0.012711  -0.138092   0.261296
     34      -0.172617   0.066458   0.187406   0.083007  -0.418859  -0.713395
     35      -0.878183   0.327579  -0.030348   0.421365   0.093076   0.131236
     36       0.145042   0.485176   0.098427  -0.037782   0.152101  -0.096436
     37       0.039247  -0.206472  -0.242074   0.015421   0.183386  -0.090764
     38       0.015505   0.189500  -0.022390  -0.012961  -0.020377   0.022981
                 24         25         26         27         28         29    
      0       0.032988  -0.000272   0.023433  -0.051635  -0.104397   0.000009
      1       0.006942  -0.002279   0.033813  -0.015400   0.162118  -0.006042
      2      -0.002253  -0.010783  -0.007224   0.004657  -0.029660   0.001293
      3       0.068575   0.000751  -0.003866   0.043434   0.086290  -0.013889
      4       0.037477   0.000524  -0.010303   0.031309   0.028542   0.003840
      5      -0.008817   0.000048   0.002239  -0.007209  -0.007849  -0.000598
      6      -0.043844  -0.000915   0.037217  -0.106579   0.047518   0.018537
      7      -0.032092   0.002175  -0.030459   0.089402  -0.040148   0.008431
      8       0.007084   0.009529   0.005176  -0.015184   0.006923  -0.002011
      9      -0.018072  -0.000719  -0.014316   0.110755   0.001822   0.011729
     10       0.055432  -0.016136   0.039156  -0.241824   0.009240  -0.031978
     11      -0.008823  -0.085255  -0.007254   0.044218  -0.001732   0.006084
     12       0.020627  -0.000628  -0.071645  -0.085466   0.010392   0.036994
     13      -0.020074   0.000961  -0.115372   0.000460   0.030032  -0.045941
     14       0.003021   0.017198   0.024446   0.002963  -0.006109   0.005662
     15      -0.088052   0.002157  -0.090697   0.091697   0.063676   0.013709
     16       0.000971   0.012925   0.000084   0.013682   0.005470   0.000222
     17       0.001698   0.061221   0.002275  -0.006454  -0.002921  -0.000861
     18      -0.008726  -0.000573   0.015885   0.042513  -0.027128   0.003271
     19      -0.019053   0.002068   0.010039   0.051492  -0.009967   0.007882
     20       0.003414   0.013682  -0.002184  -0.010462   0.002313  -0.001543
     21       0.015081  -0.000365   0.023524  -0.015144  -0.002711  -0.001540
     22       0.005047  -0.003042   0.038427  -0.019009  -0.059920  -0.001607
     23      -0.001298  -0.009416  -0.008663   0.004515   0.012382   0.000428
     24       0.426663   0.004903  -0.185693   0.158121  -0.434046  -0.011900
     25       0.437137   0.007086  -0.218665   0.167045  -0.569222   0.010078
     26      -0.097025   0.009992   0.048303  -0.037581   0.123093  -0.002022
     27      -0.361407  -0.005564   0.100635  -0.718959  -0.427382  -0.147610
     28      -0.013338   0.004344  -0.036024   0.134504  -0.013374   0.020556
     29       0.011423   0.018953   0.003847  -0.009202   0.012376  -0.000658
     30      -0.026465  -0.364301   0.429651   0.287113  -0.077217  -0.356041
     31      -0.027683  -0.571238   0.475854   0.178100  -0.099278   0.463699
     32       0.026807   0.100144  -0.143681  -0.174668   0.017793   0.381228
     33       0.271921   0.000744   0.108213  -0.096426   0.115482  -0.014877
     34      -0.609507  -0.003727  -0.174784   0.088261  -0.422903   0.029845
     35       0.113175  -0.006031   0.032510  -0.015722   0.081498  -0.005449
     36      -0.034611   0.377703   0.418246   0.289753  -0.072630  -0.406425
     37      -0.040765   0.594587   0.463098   0.196728  -0.092510   0.302095
     38      -0.011571  -0.147856  -0.061704   0.081799   0.023092  -0.476652
                 30         31         32         33         34         35    
      0       0.073692   0.014241   0.058832  -0.042707   0.033831  -0.075172
      1      -0.024769   0.400317  -0.013076   0.098987   0.008076  -0.031673
      2       0.002922  -0.079762   0.001344  -0.018712  -0.002569   0.008390
      3      -0.180513  -0.138084  -0.064902  -0.004191  -0.060405  -0.025614
      4      -0.044486  -0.431125  -0.095088  -0.015985   0.053071   0.028729
      5       0.012973   0.088323   0.020162   0.002909  -0.009034  -0.005063
      6       0.262985  -0.017220  -0.030830  -0.121987   0.001217   0.001424
      7       0.020311   0.107691   0.026782   0.013052  -0.000460   0.000069
      8      -0.009416  -0.020456  -0.004770  -0.000077   0.000066  -0.000046
      9      -0.001131  -0.038275   0.454928   0.607418   0.001553   0.000245
     10       0.015353  -0.099392   0.123644   0.149607  -0.000156   0.000151
     11      -0.002543   0.018799  -0.029118  -0.036659  -0.000008  -0.000036
     12       0.005428  -0.003263   0.012304  -0.051399  -0.000025   0.000272
     13       0.012090   0.017144  -0.007499   0.009518  -0.000094   0.000172
     14      -0.001874  -0.003175   0.000797  -0.001282   0.000007  -0.000031
     15      -0.047702   0.011604  -0.118868   0.103331  -0.000909   0.001785
     16      -0.029037  -0.034728   0.580402  -0.473399   0.000188  -0.002214
     17       0.007501   0.006545  -0.115865   0.093693  -0.000023   0.000404
     18      -0.076289   0.051861  -0.280095  -0.348387  -0.000363  -0.000018
     19      -0.017235   0.034244  -0.111781  -0.138615  -0.000094  -0.000021
     20       0.004284  -0.007110   0.024793   0.030858   0.000022   0.000007
     21       0.006367   0.011329   0.012506  -0.010386   0.000131  -0.000167
     22       0.035012  -0.030737  -0.383660   0.294306  -0.000017   0.000436
     23      -0.007386   0.005964   0.078452  -0.059938   0.000003  -0.000088
     24      -0.029120   0.545121   0.077736   0.028842   0.685288   0.303211
     25       0.149318   0.245850   0.061804   0.029310  -0.588293  -0.264204
     26      -0.028829  -0.062925  -0.014499  -0.006480   0.099956   0.044927
     27      -0.867629   0.329641   0.214658   0.259945  -0.004270  -0.001638
     28       0.098266   0.090911   0.017640  -0.027737   0.003561   0.005862
     29      -0.000842  -0.025712  -0.007410   0.001107  -0.000607  -0.001106
     30       0.065356  -0.040392   0.128132  -0.060082  -0.001251   0.001852
     31      -0.118100   0.003936   0.161774   0.092546   0.000604  -0.000614
     32      -0.076183   0.020827  -0.024100  -0.008975  -0.002030   0.002870
     33      -0.009851   0.280131   0.042742   0.022076  -0.382551   0.851049
     34       0.207798  -0.165549   0.117971  -0.091916  -0.136737   0.310363
     35      -0.040277   0.027600  -0.025512   0.018378   0.038004  -0.085593
     36       0.075946  -0.039347   0.109293  -0.057217  -0.001119   0.001642
     37      -0.081403  -0.000288   0.136163   0.082224   0.001341  -0.001691
     38       0.103779  -0.017229  -0.040674  -0.014881   0.001897  -0.002768
                  36         37         38    
      0       0.001334   0.000066   0.000643
      1       0.000131  -0.000019   0.001344
      2      -0.000075  -0.000210  -0.000280
      3      -0.000208   0.000002   0.001181
      4       0.000098   0.000021   0.000675
      5      -0.000035  -0.000022  -0.000172
      6       0.000457   0.000012  -0.004984
      7       0.000000  -0.000056  -0.073046
      8      -0.000013  -0.000240   0.014547
      9       0.001509   0.000120   0.000171
     10       0.002392   0.000263   0.000754
     11      -0.000447   0.000690  -0.000159
     12      -0.048613  -0.006760  -0.000871
     13       0.036699  -0.011854   0.001064
     14       0.000270  -0.079075  -0.000176
     15      -0.001765  -0.000077   0.000353
     16      -0.002556  -0.000054  -0.000883
     17       0.000546   0.000820   0.000170
     18      -0.000853  -0.000039  -0.000646
     19      -0.000674  -0.000029  -0.000255
     20       0.000159   0.000013   0.000057
     21       0.000277  -0.000007  -0.000028
     22       0.001037   0.000051   0.000483
     23      -0.000207   0.000005  -0.000099
     24       0.000769   0.000019  -0.004095
     25      -0.000705  -0.000051   0.003212
     26       0.000072  -0.000218  -0.000550
     27       0.000697   0.000063   0.062759
     28      -0.012492  -0.001111   0.976057
     29       0.002487  -0.000945  -0.193973
     30       0.344654   0.401305   0.004425
     31      -0.137942  -0.168054  -0.001228
     32       0.554240   0.601795   0.006863
     33      -0.003723  -0.000062  -0.002649
     34      -0.003021  -0.000274  -0.000443
     35       0.000711  -0.000658   0.000141
     36       0.325546  -0.308169   0.003643
     37      -0.362331   0.332117  -0.003490
     38      -0.560197   0.486663  -0.006257


-----------
IR SPECTRUM
-----------

 Mode    freq (cm**-1)   T**2         TX         TY         TZ
-------------------------------------------------------------------
   7:       138.93    0.708281  (  0.064416  -0.072563  -0.835982)
   8:       344.63   14.445563  ( -0.223975  -0.884541  -3.689578)
   9:       356.58   19.945110  ( -2.141434   3.794641  -0.979831)
  10:       452.47   56.386448  ( -6.616900   3.536350  -0.311936)
  11:       486.60   80.504757  ( -5.790454  -6.707645   1.408154)
  12:       498.54    0.628427  ( -0.101427   0.313144   0.721166)
  13:       566.18    1.166984  ( -1.067447   0.149661  -0.071709)
  14:       601.61   80.059458  (  0.016751  -1.511488  -8.818990)
  15:       668.46   87.099512  ( -0.379411  -2.000864  -9.107804)
  16:       708.44   43.766613  (  5.492223   3.483894  -1.210199)
  17:       780.11    3.925392  (  0.986897   1.639072  -0.514655)
  18:       790.93   15.319779  ( -0.148370  -0.890727  -3.808460)
  19:       884.18   74.583397  (  0.314716   1.766394   8.447734)
  20:       921.11    2.112853  (  1.116285   0.909395  -0.199403)
  21:       998.90    0.252829  ( -0.057511  -0.012196  -0.499373)
  22:      1067.94   34.270448  (  5.323135  -2.420857   0.272272)
  23:      1092.59   71.644797  ( -1.997219  -8.075089   1.564882)
  24:      1206.21   94.937012  ( -0.619352   9.570825  -1.718348)
  25:      1235.76    0.598924  (  0.354042   0.415241  -0.548774)
  26:      1299.68   25.021968  ( -1.266706   4.753728  -0.905256)
  27:      1337.24  272.024584  ( 16.432124   1.123284  -0.864938)
  28:      1411.04   38.323104  ( -0.465162  -6.055136   1.200858)
  29:      1458.38  115.109641  ( -8.854858   6.024876  -0.634037)
  30:      1506.29  387.680826  (-16.569116 -10.366765   2.382311)
  31:      1664.59  594.906469  ( -5.947079 -23.202161   4.604175)
  32:      1856.75  1313.466895  ( 18.158407  30.683877  -6.499139)
  33:      1904.99  623.232810  ( 22.992031  -9.572441   1.722700)
  34:      3234.80   10.169811  ( -0.411783  -3.091939   0.663445)
  35:      3246.92   22.887060  (  4.782224   0.025156  -0.129462)
  36:      3359.31  236.199721  ( 12.220325  -9.316488   0.257736)
  37:      3399.40  248.192682  (  1.437602   2.200205  15.533354)
  38:      3559.60  303.552223  ( -0.400811  17.084801  -3.391332)

The first frequency considered to be a vibration is 7
The total number of vibrations considered is 32


--------------------------
THERMOCHEMISTRY AT 298.15K
--------------------------

Temperature         ... 298.15 K
Pressure            ... 1.00 atm
Total Mass          ... 113.10 AMU

Throughout the following assumptions are being made:
  (1) The electronic state is orbitally nondegenerate
  (2) There are no thermally accessible electronically excited states
  (3) Hindered rotations indicated by low frequency modes are not
      treated as such but are treated as vibrations and this may
      cause some error
  (4) All equations used are the standard statistical mechanics
      equations for an ideal gas
  (5) All vibrations are strictly harmonic

freq.     138.93  E(vib)   ...       0.42 
freq.     344.63  E(vib)   ...       0.23 
freq.     356.58  E(vib)   ...       0.22 
freq.     452.47  E(vib)   ...       0.16 
freq.     486.60  E(vib)   ...       0.15 
freq.     498.54  E(vib)   ...       0.14 
freq.     566.18  E(vib)   ...       0.11 
freq.     601.61  E(vib)   ...       0.10 
freq.     668.46  E(vib)   ...       0.08 
freq.     708.44  E(vib)   ...       0.07 
freq.     780.11  E(vib)   ...       0.05 
freq.     790.93  E(vib)   ...       0.05 
freq.     884.18  E(vib)   ...       0.04 
freq.     921.11  E(vib)   ...       0.03 
freq.     998.90  E(vib)   ...       0.02 
freq.    1067.94  E(vib)   ...       0.02 
freq.    1092.59  E(vib)   ...       0.02 
freq.    1206.21  E(vib)   ...       0.01 
freq.    1235.76  E(vib)   ...       0.01 
freq.    1299.68  E(vib)   ...       0.01 
freq.    1337.24  E(vib)   ...       0.01 
freq.    1411.04  E(vib)   ...       0.00 
freq.    1458.38  E(vib)   ...       0.00 
freq.    1506.29  E(vib)   ...       0.00 
freq.    1664.59  E(vib)   ...       0.00 
freq.    1856.75  E(vib)   ...       0.00 
freq.    1904.99  E(vib)   ...       0.00 
freq.    3234.80  E(vib)   ...       0.00 
freq.    3246.92  E(vib)   ...       0.00 
freq.    3359.31  E(vib)   ...       0.00 
freq.    3399.40  E(vib)   ...       0.00 
freq.    3559.60  E(vib)   ...       0.00 

------------
INNER ENERGY
------------

The inner energy is: U= E(el) + E(ZPE) + E(vib) + E(rot) + E(trans)
    E(el)   - is the total energy from the electronic structure calculation
              = E(kin-el) + E(nuc-el) + E(el-el) + E(nuc-nuc)
    E(ZPE)  - the the zero temperature vibrational energy from the frequency calculation
    E(vib)  - the the finite temperature correction to E(ZPE) due to population
              of excited vibrational states
    E(rot)  - is the rotational thermal energy
    E(trans)- is the translational thermal energy

Summary of contributions to the inner energy U:
Electronic energy                ...   -414.71638626 Eh
Zero point energy                ...      0.09805040 Eh      61.53 kcal/mol
Thermal vibrational correction   ...      0.00311674 Eh       1.96 kcal/mol
Thermal rotational correction    ...      0.00141627 Eh       0.89 kcal/mol
Thermal translational correction ...      0.00141627 Eh       0.89 kcal/mol
-----------------------------------------------------------------------
Total thermal energy                   -414.61238657 Eh


Summary of corrections to the electronic energy:
(perhaps to be used in another calculation)
Total thermal correction                  0.00594929 Eh       3.73 kcal/mol
Non-thermal (ZPE) correction              0.09805040 Eh      61.53 kcal/mol
-----------------------------------------------------------------------
Total correction                          0.10399969 Eh      65.26 kcal/mol


--------
ENTHALPY
--------

The enthalpy is H = U + kB*T
                kB is Boltzmann's constant
Total free energy                 ...   -414.61238657 Eh 
Thermal Enthalpy correction       ...      0.00094421 Eh       0.59 kcal/mol
-----------------------------------------------------------------------
Total Enthalpy                    ...   -414.61144236 Eh


Note: Only C1 symmetry has been detected, increase convergence thresholds 
      if your molecule has a higher symmetry. Symmetry factor of 1.0 is   
      used for the rotational entropy correction. 
 

Note: Rotational entropy computed according to Herzberg 
Infrared and Raman Spectra, Chapter V,1, Van Nostrand Reinhold, 1945 
Point Group:  C1, Symmetry Number:   1  
Rotational constants in cm-1:     0.126035     0.063096     0.042331 

Vibrational entropy computed according to the QRRHO of S. Grimme
Chem.Eur.J. 2012 18 9955


-------
ENTROPY
-------

The entropy contributions are T*S = T*(S(el)+S(vib)+S(rot)+S(trans))
     S(el)   - electronic entropy
     S(vib)  - vibrational entropy
     S(rot)  - rotational entropy
     S(trans)- translational entropy
The entropies will be listed as mutliplied by the temperature to get
units of energy

Electronic entropy                ...      0.00000000 Eh      0.00 kcal/mol
Vibrational entropy               ...      0.00473459 Eh      2.97 kcal/mol
Rotational entropy                ...      0.01328589 Eh      8.34 kcal/mol
Translational entropy             ...      0.01904554 Eh     11.95 kcal/mol
-----------------------------------------------------------------------
Final entropy term                ...      0.03706603 Eh     23.26 kcal/mol

In case the symmetry of your molecule has not been determined correctly
or in case you have a reason to use a different symmetry number we print 
out the resulting rotational entropy values for sn=1,12 :
 --------------------------------------------------------
|  sn= 1 | S(rot)=       0.01328589 Eh      8.34 kcal/mol|
|  sn= 2 | S(rot)=       0.01263144 Eh      7.93 kcal/mol|
|  sn= 3 | S(rot)=       0.01224860 Eh      7.69 kcal/mol|
|  sn= 4 | S(rot)=       0.01197698 Eh      7.52 kcal/mol|
|  sn= 5 | S(rot)=       0.01176629 Eh      7.38 kcal/mol|
|  sn= 6 | S(rot)=       0.01159415 Eh      7.28 kcal/mol|
|  sn= 7 | S(rot)=       0.01144860 Eh      7.18 kcal/mol|
|  sn= 8 | S(rot)=       0.01132252 Eh      7.10 kcal/mol|
|  sn= 9 | S(rot)=       0.01121132 Eh      7.04 kcal/mol|
|  sn=10 | S(rot)=       0.01111184 Eh      6.97 kcal/mol|
|  sn=11 | S(rot)=       0.01102185 Eh      6.92 kcal/mol|
|  sn=12 | S(rot)=       0.01093969 Eh      6.86 kcal/mol|
 --------------------------------------------------------


-------------------
GIBBS FREE ENERGY
-------------------

The Gibbs free energy is G = H - T*S

Total enthalpy                    ...   -414.61144236 Eh 
Total entropy correction          ...     -0.03706603 Eh    -23.26 kcal/mol
-----------------------------------------------------------------------
Final Gibbs free energy         ...   -414.64850838 Eh

For completeness - the Gibbs free energy minus the electronic energy
G-E(el)                           ...      0.06787787 Eh     42.59 kcal/mol


Timings for individual modules:

Sum of individual times         ...      160.891 sec (=   2.682 min)
GTO integral calculation        ...        6.429 sec (=   0.107 min)   4.0 %
SCF iterations                  ...       77.765 sec (=   1.296 min)  48.3 %
SCF Gradient evaluation         ...       13.855 sec (=   0.231 min)   8.6 %
Geometry relaxation             ...        0.530 sec (=   0.009 min)   0.3 %
Analytical frequency calculation...       62.312 sec (=   1.039 min)  38.7 %
                             ****ORCA TERMINATED NORMALLY****
TOTAL RUN TIME: 0 days 0 hours 2 minutes 41 seconds 769 msec
