13
* (null), Energy   -1000.0000000
C     1.365855    0.533997   -0.017795    0.065219   -0.948345    0.082331
C     1.281863   -0.788655    0.093257    0.164097    0.975187   -0.079706
N    -0.021011   -1.450395    0.118437    0.019655   -0.099803    0.008972
C    -1.289878   -0.622329    0.007801   -0.108398    0.032472   -0.006219
N    -1.064188    0.706802   -0.097341   -0.000694   -0.033171    0.002820
C     0.168081    1.391376   -0.119566   -0.000742   -0.234731    0.019297
O    -2.334795   -1.198357    0.024143    0.071581    0.022724    0.000342
O     0.193513    2.595440   -0.217241   -0.020076    0.253881   -0.021311
H     2.123010   -1.478478    0.173803   -0.968015   -0.075935   -0.014860
H    -0.114939   -2.012404    0.984263   -0.401435   -0.248990   -0.143230
H    -1.901448    1.289086   -0.172072   -0.041988   -0.090722    0.006402
H     2.334895    1.034094   -0.036100   -0.687400    0.187435   -0.032084
H    -0.071619   -2.162707   -0.633029   -0.414105   -0.224082    0.165608
13
* Frequency(31) 1741.6809
C     1.373267    0.426223   -0.008439    0.065219   -0.948345    0.082331
C     1.300512   -0.677831    0.084199    0.164097    0.975187   -0.079706
N    -0.018777   -1.461737    0.119457    0.019655   -0.099803    0.008972
C    -1.302196   -0.618639    0.007094   -0.108398    0.032472   -0.006219
N    -1.064267    0.703032   -0.097021   -0.000694   -0.033171    0.002820
C     0.167997    1.364700   -0.117373   -0.000742   -0.234731    0.019297
O    -2.326660   -1.195775    0.024182    0.071581    0.022724    0.000342
O     0.191231    2.624293   -0.219663   -0.020076    0.253881   -0.021311
H     2.013000   -1.487107    0.172115   -0.968015   -0.075935   -0.014860
H    -0.160560   -2.040700    0.967986   -0.401435   -0.248990   -0.143230
H    -1.906220    1.278776   -0.171345   -0.041988   -0.090722    0.006402
H     2.256775    1.055395   -0.039746   -0.687400    0.187435   -0.032084
H    -0.118680   -2.188172   -0.614208   -0.414105   -0.224082    0.165608
13
* Frequency(31) 1741.6809
C     1.379875    0.330127   -0.000096    0.065219   -0.948345    0.082331
C     1.317140   -0.579015    0.076122    0.164097    0.975187   -0.079706
N    -0.016785   -1.471850    0.120366    0.019655   -0.099803    0.008972
C    -1.313180   -0.615349    0.006464   -0.108398    0.032472   -0.006219
N    -1.064337    0.699671   -0.096735   -0.000694   -0.033171    0.002820
C     0.167922    1.340915   -0.115418   -0.000742   -0.234731    0.019297
O    -2.319407   -1.193472    0.024217    0.071581    0.022724    0.000342
O     0.189197    2.650018   -0.221822   -0.020076    0.253881   -0.021311
H     1.914912   -1.494802    0.170609   -0.968015   -0.075935   -0.014860
H    -0.201237   -2.065930    0.953473   -0.401435   -0.248990   -0.143230
H    -1.910474    1.269583   -0.170696   -0.041988   -0.090722    0.006402
H     2.187121    1.074388   -0.042997   -0.687400    0.187435   -0.032084
H    -0.160641   -2.210878   -0.597427   -0.414105   -0.224082    0.165608
13
* Frequency(31) 1741.6809
C     1.384965    0.256125    0.006328    0.065219   -0.948345    0.082331
C     1.329945   -0.502918    0.069902    0.164097    0.975187   -0.079706
N    -0.015252   -1.479638    0.121066    0.019655   -0.099803    0.008972
C    -1.321639   -0.612815    0.005979   -0.108398    0.032472   -0.006219
N    -1.064391    0.697082   -0.096515   -0.000694   -0.033171    0.002820
C     0.167864    1.322598   -0.113912   -0.000742   -0.234731    0.019297
O    -2.313821   -1.191699    0.024243    0.071581    0.022724    0.000342
O     0.187630    2.669830   -0.223485   -0.020076    0.253881   -0.021311
H     1.839374   -1.500727    0.169449   -0.968015   -0.075935   -0.014860
H    -0.232562   -2.085360    0.942296   -0.401435   -0.248990   -0.143230
H    -1.913751    1.262504   -0.170197   -0.041988   -0.090722    0.006402
H     2.133481    1.089014   -0.045501   -0.687400    0.187435   -0.032084
H    -0.192955   -2.228364   -0.584504   -0.414105   -0.224082    0.165608
13
* Frequency(31) 1741.6809
C     1.387983    0.212233    0.010139    0.065219   -0.948345    0.082331
C     1.337539   -0.457784    0.066213    0.164097    0.975187   -0.079706
N    -0.014342   -1.484257    0.121481    0.019655   -0.099803    0.008972
C    -1.326656   -0.611312    0.005691   -0.108398    0.032472   -0.006219
N    -1.064423    0.695547   -0.096384   -0.000694   -0.033171    0.002820
C     0.167829    1.311734   -0.113019   -0.000742   -0.234731    0.019297
O    -2.310508   -1.190647    0.024259    0.071581    0.022724    0.000342
O     0.186701    2.681580   -0.224472   -0.020076    0.253881   -0.021311
H     1.794572   -1.504242    0.168762   -0.968015   -0.075935   -0.014860
H    -0.251141   -2.096884    0.935667   -0.401435   -0.248990   -0.143230
H    -1.915694    1.258305   -0.169900   -0.041988   -0.090722    0.006402
H     2.101667    1.097689   -0.046986   -0.687400    0.187435   -0.032084
H    -0.212121   -2.238735   -0.576840   -0.414105   -0.224082    0.165608
13
* Frequency(31) 1741.6809
C     1.388604    0.203210    0.010922    0.065219   -0.948345    0.082331
C     1.339101   -0.448506    0.065455    0.164097    0.975187   -0.079706
N    -0.014155   -1.485207    0.121567    0.019655   -0.099803    0.008972
C    -1.327687   -0.611003    0.005632   -0.108398    0.032472   -0.006219
N    -1.064430    0.695231   -0.096357   -0.000694   -0.033171    0.002820
C     0.167822    1.309501   -0.112835   -0.000742   -0.234731    0.019297
O    -2.309827   -1.190431    0.024262    0.071581    0.022724    0.000342
O     0.186510    2.683995   -0.224675   -0.020076    0.253881   -0.021311
H     1.785362   -1.504964    0.168620   -0.968015   -0.075935   -0.014860
H    -0.254961   -2.099253    0.934304   -0.401435   -0.248990   -0.143230
H    -1.916094    1.257442   -0.169839   -0.041988   -0.090722    0.006402
H     2.095126    1.099472   -0.047291   -0.687400    0.187435   -0.032084
H    -0.216061   -2.240867   -0.575264   -0.414105   -0.224082    0.165608
13
* Frequency(31) 1741.6809
C     1.386759    0.230033    0.008593    0.065219   -0.948345    0.082331
C     1.334459   -0.476088    0.067709    0.164097    0.975187   -0.079706
N    -0.014711   -1.482384    0.121313    0.019655   -0.099803    0.008972
C    -1.324621   -0.611921    0.005808   -0.108398    0.032472   -0.006219
N    -1.064410    0.696170   -0.096437   -0.000694   -0.033171    0.002820
C     0.167843    1.316140   -0.113381   -0.000742   -0.234731    0.019297
O    -2.311852   -1.191074    0.024253    0.071581    0.022724    0.000342
O     0.187078    2.676814   -0.224072   -0.020076    0.253881   -0.021311
H     1.812741   -1.502816    0.169040   -0.968015   -0.075935   -0.014860
H    -0.243607   -2.092210    0.938355   -0.401435   -0.248990   -0.143230
H    -1.914906    1.260008   -0.170020   -0.041988   -0.090722    0.006402
H     2.114569    1.094171   -0.046384   -0.687400    0.187435   -0.032084
H    -0.204348   -2.234529   -0.579948   -0.414105   -0.224082    0.165608
13
* Frequency(31) 1741.6809
C     1.382649    0.289795    0.003405    0.065219   -0.948345    0.082331
C     1.324118   -0.537542    0.072732    0.164097    0.975187   -0.079706
N    -0.015949   -1.476095    0.120748    0.019655   -0.099803    0.008972
C    -1.317790   -0.613968    0.006200   -0.108398    0.032472   -0.006219
N    -1.064367    0.698260   -0.096615   -0.000694   -0.033171    0.002820
C     0.167890    1.330932   -0.114597   -0.000742   -0.234731    0.019297
O    -2.316363   -1.192506    0.024231    0.071581    0.022724    0.000342
O     0.188343    2.660816   -0.222729   -0.020076    0.253881   -0.021311
H     1.873743   -1.498031    0.169977   -0.968015   -0.075935   -0.014860
H    -0.218309   -2.076520    0.947381   -0.401435   -0.248990   -0.143230
H    -1.912260    1.265725   -0.170424   -0.041988   -0.090722    0.006402
H     2.157887    1.082359   -0.044362   -0.687400    0.187435   -0.032084
H    -0.178253   -2.220408   -0.590384   -0.414105   -0.224082    0.165608
13
* Frequency(31) 1741.6809
C     1.376719    0.376021   -0.004081    0.065219   -0.948345    0.082331
C     1.309198   -0.626207    0.079979    0.164097    0.975187   -0.079706
N    -0.017736   -1.467020    0.119932    0.019655   -0.099803    0.008972
C    -1.307935   -0.616920    0.006765   -0.108398    0.032472   -0.006219
N    -1.064303    0.701276   -0.096871   -0.000694   -0.033171    0.002820
C     0.167958    1.352274   -0.116352   -0.000742   -0.234731    0.019297
O    -2.322871   -1.194572    0.024200    0.071581    0.022724    0.000342
O     0.190168    2.637732   -0.220791   -0.020076    0.253881   -0.021311
H     1.961757   -1.491127    0.171328   -0.968015   -0.075935   -0.014860
H    -0.181810   -2.053881    0.960404   -0.401435   -0.248990   -0.143230
H    -1.908442    1.273973   -0.171006   -0.041988   -0.090722    0.006402
H     2.220387    1.065317   -0.041445   -0.687400    0.187435   -0.032084
H    -0.140601   -2.200034   -0.605441   -0.414105   -0.224082    0.165608
13
* Frequency(31) 1741.6809
C     1.369612    0.479365   -0.013052    0.065219   -0.948345    0.082331
C     1.291316   -0.732477    0.088665    0.164097    0.975187   -0.079706
N    -0.019878   -1.456145    0.118954    0.019655   -0.099803    0.008972
C    -1.296122   -0.620459    0.007443   -0.108398    0.032472   -0.006219
N    -1.064228    0.704891   -0.097179   -0.000694   -0.033171    0.002820
C     0.168038    1.377854   -0.118455   -0.000742   -0.234731    0.019297
O    -2.330671   -1.197048    0.024163    0.071581    0.022724    0.000342
O     0.192356    2.610066   -0.218469   -0.020076    0.253881   -0.021311
H     2.067245   -1.482852    0.172947   -0.968015   -0.075935   -0.014860
H    -0.138064   -2.026748    0.976012   -0.401435   -0.248990   -0.143230
H    -1.903867    1.283860   -0.171704   -0.041988   -0.090722    0.006402
H     2.295295    1.044892   -0.037948   -0.687400    0.187435   -0.032084
H    -0.095475   -2.175615   -0.623488   -0.414105   -0.224082    0.165608
13
* Frequency(31) 1741.6809
C     1.362098    0.588630   -0.022538    0.065219   -0.948345    0.082331
C     1.272410   -0.844834    0.097848    0.164097    0.975187   -0.079706
N    -0.022143   -1.444646    0.117920    0.019655   -0.099803    0.008972
C    -1.283633   -0.624200    0.008159   -0.108398    0.032472   -0.006219
N    -1.064148    0.708713   -0.097504   -0.000694   -0.033171    0.002820
C     0.168124    1.404898   -0.120678   -0.000742   -0.234731    0.019297
O    -2.338919   -1.199666    0.024124    0.071581    0.022724    0.000342
O     0.194669    2.580815   -0.216013   -0.020076    0.253881   -0.021311
H     2.178776   -1.474103    0.174660   -0.968015   -0.075935   -0.014860
H    -0.091813   -1.998060    0.992515   -0.401435   -0.248990   -0.143230
H    -1.899029    1.294312   -0.172441   -0.041988   -0.090722    0.006402
H     2.374495    1.023296   -0.034252   -0.687400    0.187435   -0.032084
H    -0.047763   -2.149798   -0.642569   -0.414105   -0.224082    0.165608
13
* Frequency(31) 1741.6809
C     1.354991    0.691974   -0.031510    0.065219   -0.948345    0.082331
C     1.254527   -0.951104    0.106534    0.164097    0.975187   -0.079706
N    -0.024285   -1.433770    0.116943    0.019655   -0.099803    0.008972
C    -1.271820   -0.627739    0.008837   -0.108398    0.032472   -0.006219
N    -1.064072    0.712327   -0.097811   -0.000694   -0.033171    0.002820
C     0.168205    1.430478   -0.122781   -0.000742   -0.234731    0.019297
O    -2.346719   -1.202143    0.024086    0.071581    0.022724    0.000342
O     0.196857    2.553148   -0.213691   -0.020076    0.253881   -0.021311
H     2.284263   -1.465828    0.176279   -0.968015   -0.075935   -0.014860
H    -0.048067   -1.970927    1.008123   -0.401435   -0.248990   -0.143230
H    -1.894453    1.304199   -0.173139   -0.041988   -0.090722    0.006402
H     2.449403    1.002871   -0.030755   -0.687400    0.187435   -0.032084
H    -0.002637   -2.125379   -0.660616   -0.414105   -0.224082    0.165608
13
* Frequency(31) 1741.6809
C     1.349061    0.778199   -0.038996    0.065219   -0.948345    0.082331
C     1.239607   -1.039769    0.113781    0.164097    0.975187   -0.079706
N    -0.026072   -1.424695    0.116127    0.019655   -0.099803    0.008972
C    -1.261965   -0.630691    0.009402   -0.108398    0.032472   -0.006219
N    -1.064009    0.715343   -0.098067   -0.000694   -0.033171    0.002820
C     0.168272    1.451820   -0.124535   -0.000742   -0.234731    0.019297
O    -2.353227   -1.204209    0.024055    0.071581    0.022724    0.000342
O     0.198683    2.530065   -0.211754   -0.020076    0.253881   -0.021311
H     2.372277   -1.458924    0.177630   -0.968015   -0.075935   -0.014860
H    -0.011568   -1.948288    1.021146   -0.401435   -0.248990   -0.143230
H    -1.890636    1.312447   -0.173721   -0.041988   -0.090722    0.006402
H     2.511903    0.985829   -0.027838   -0.687400    0.187435   -0.032084
H     0.035014   -2.105005   -0.675673   -0.414105   -0.224082    0.165608
13
* Frequency(31) 1741.6809
C     1.344951    0.837961   -0.044184    0.065219   -0.948345    0.082331
C     1.229267   -1.101223    0.118804    0.164097    0.975187   -0.079706
N    -0.027310   -1.418406    0.115562    0.019655   -0.099803    0.008972
C    -1.255134   -0.632738    0.009794   -0.108398    0.032472   -0.006219
N    -1.063965    0.717434   -0.098245   -0.000694   -0.033171    0.002820
C     0.168319    1.466612   -0.125751   -0.000742   -0.234731    0.019297
O    -2.357738   -1.205641    0.024034    0.071581    0.022724    0.000342
O     0.199948    2.514066   -0.210411   -0.020076    0.253881   -0.021311
H     2.433279   -1.454139    0.178566   -0.968015   -0.075935   -0.014860
H     0.013730   -1.932598    1.030172   -0.401435   -0.248990   -0.143230
H    -1.887990    1.318164   -0.174125   -0.041988   -0.090722    0.006402
H     2.555221    0.974017   -0.025816   -0.687400    0.187435   -0.032084
H     0.061110   -2.090884   -0.686109   -0.414105   -0.224082    0.165608
13
* Frequency(31) 1741.6809
C     1.343106    0.864784   -0.046513    0.065219   -0.948345    0.082331
C     1.224625   -1.128805    0.121058    0.164097    0.975187   -0.079706
N    -0.027866   -1.415583    0.115308    0.019655   -0.099803    0.008972
C    -1.252068   -0.633656    0.009970   -0.108398    0.032472   -0.006219
N    -1.063946    0.718372   -0.098325   -0.000694   -0.033171    0.002820
C     0.168340    1.473251   -0.126297   -0.000742   -0.234731    0.019297
O    -2.359763   -1.206283    0.024024    0.071581    0.022724    0.000342
O     0.200516    2.506885   -0.209808   -0.020076    0.253881   -0.021311
H     2.460658   -1.451991    0.178987   -0.968015   -0.075935   -0.014860
H     0.025084   -1.925555    1.034223   -0.401435   -0.248990   -0.143230
H    -1.886802    1.320730   -0.174306   -0.041988   -0.090722    0.006402
H     2.574663    0.968716   -0.024909   -0.687400    0.187435   -0.032084
H     0.072823   -2.084546   -0.690793   -0.414105   -0.224082    0.165608
13
* Frequency(31) 1741.6809
C     1.343727    0.855761   -0.045730    0.065219   -0.948345    0.082331
C     1.226187   -1.119527    0.120300    0.164097    0.975187   -0.079706
N    -0.027679   -1.416533    0.115393    0.019655   -0.099803    0.008972
C    -1.253099   -0.633347    0.009911   -0.108398    0.032472   -0.006219
N    -1.063952    0.718056   -0.098298   -0.000694   -0.033171    0.002820
C     0.168333    1.471018   -0.126114   -0.000742   -0.234731    0.019297
O    -2.359082   -1.206067    0.024027    0.071581    0.022724    0.000342
O     0.200325    2.509301   -0.210011   -0.020076    0.253881   -0.021311
H     2.451448   -1.452714    0.178845   -0.968015   -0.075935   -0.014860
H     0.021264   -1.927924    1.032860   -0.401435   -0.248990   -0.143230
H    -1.887202    1.319867   -0.174245   -0.041988   -0.090722    0.006402
H     2.568123    0.970499   -0.025214   -0.687400    0.187435   -0.032084
H     0.068883   -2.086678   -0.689218   -0.414105   -0.224082    0.165608
13
* Frequency(31) 1741.6809
C     1.346745    0.811870   -0.041919    0.065219   -0.948345    0.082331
C     1.233781   -1.074393    0.116611    0.164097    0.975187   -0.079706
N    -0.026770   -1.421152    0.115808    0.019655   -0.099803    0.008972
C    -1.258116   -0.631844    0.009623   -0.108398    0.032472   -0.006219
N    -1.063984    0.716521   -0.098167   -0.000694   -0.033171    0.002820
C     0.168298    1.460154   -0.125221   -0.000742   -0.234731    0.019297
O    -2.355769   -1.205015    0.024043    0.071581    0.022724    0.000342
O     0.199395    2.521051   -0.210997   -0.020076    0.253881   -0.021311
H     2.406646   -1.456228    0.178158   -0.968015   -0.075935   -0.014860
H     0.002685   -1.939448    1.026231   -0.401435   -0.248990   -0.143230
H    -1.889145    1.315668   -0.173948   -0.041988   -0.090722    0.006402
H     2.536309    0.979174   -0.026699   -0.687400    0.187435   -0.032084
H     0.049717   -2.097049   -0.681553   -0.414105   -0.224082    0.165608
13
* Frequency(31) 1741.6809
C     1.351835    0.737867   -0.035495    0.065219   -0.948345    0.082331
C     1.246586   -0.998296    0.110391    0.164097    0.975187   -0.079706
N    -0.025236   -1.428940    0.116509    0.019655   -0.099803    0.008972
C    -1.266575   -0.629310    0.009138   -0.108398    0.032472   -0.006219
N    -1.064039    0.713933   -0.097947   -0.000694   -0.033171    0.002820
C     0.168241    1.441837   -0.123715   -0.000742   -0.234731    0.019297
O    -2.350183   -1.203242    0.024070    0.071581    0.022724    0.000342
O     0.197829    2.540862   -0.212660   -0.020076    0.253881   -0.021311
H     2.331108   -1.462154    0.176998   -0.968015   -0.075935   -0.014860
H    -0.028640   -1.958878    1.015054   -0.401435   -0.248990   -0.143230
H    -1.892422    1.308589   -0.173449   -0.041988   -0.090722    0.006402
H     2.482668    0.993800   -0.029203   -0.687400    0.187435   -0.032084
H     0.017403   -2.114535   -0.668630   -0.414105   -0.224082    0.165608
13
* Frequency(31) 1741.6809
C     1.358443    0.641772   -0.027152    0.065219   -0.948345    0.082331
C     1.263214   -0.899480    0.102315    0.164097    0.975187   -0.079706
N    -0.023244   -1.439053    0.117418    0.019655   -0.099803    0.008972
C    -1.277559   -0.626020    0.008508   -0.108398    0.032472   -0.006219
N    -1.064109    0.710571   -0.097662   -0.000694   -0.033171    0.002820
C     0.168165    1.418052   -0.121759   -0.000742   -0.234731    0.019297
O    -2.342930   -1.200940    0.024104    0.071581    0.022724    0.000342
O     0.195794    2.566588   -0.214819   -0.020076    0.253881   -0.021311
H     2.233020   -1.469848    0.175492   -0.968015   -0.075935   -0.014860
H    -0.069318   -1.984108    1.000541   -0.401435   -0.248990   -0.143230
H    -1.896676    1.299396   -0.172800   -0.041988   -0.090722    0.006402
H     2.413014    1.012793   -0.032454   -0.687400    0.187435   -0.032084
H    -0.024558   -2.137241   -0.651849   -0.414105   -0.224082    0.165608
13
* Frequency(31) 1741.6809
C     1.365855    0.533997   -0.017795    0.065219   -0.948345    0.082331
C     1.281863   -0.788655    0.093257    0.164097    0.975187   -0.079706
N    -0.021011   -1.450395    0.118437    0.019655   -0.099803    0.008972
C    -1.289878   -0.622329    0.007801   -0.108398    0.032472   -0.006219
N    -1.064188    0.706802   -0.097341   -0.000694   -0.033171    0.002820
C     0.168081    1.391376   -0.119566   -0.000742   -0.234731    0.019297
O    -2.334795   -1.198357    0.024143    0.071581    0.022724    0.000342
O     0.193513    2.595440   -0.217241   -0.020076    0.253881   -0.021311
H     2.123010   -1.478478    0.173803   -0.968015   -0.075935   -0.014860
H    -0.114939   -2.012404    0.984263   -0.401435   -0.248990   -0.143230
H    -1.901448    1.289086   -0.172072   -0.041988   -0.090722    0.006402
H     2.334895    1.034094   -0.036100   -0.687400    0.187435   -0.032084
H    -0.071619   -2.162707   -0.633029   -0.414105   -0.224082    0.165608
