13
* (null), Energy   -1000.0000000
C     1.365855    0.533997   -0.017795   -0.013663   -0.002102   -0.000391
C     1.281863   -0.788655    0.093257    0.019667   -0.034370    0.003911
N    -0.021011   -1.450395    0.118437    0.029569    0.072978   -0.005320
C    -1.289878   -0.622329    0.007801   -1.222947   -0.973885    0.044436
N    -1.064188    0.706802   -0.097341    0.108805    0.236527   -0.016785
C     0.168081    1.391376   -0.119566    0.057929    0.343673   -0.026216
O    -2.334795   -1.198357    0.024143    0.820246    0.462867   -0.013806
O     0.193513    2.595440   -0.217241   -0.020459   -0.235093    0.018562
H     2.123010   -1.478478    0.173803    0.063273   -0.013493    0.003047
H    -0.114939   -2.012404    0.984263   -0.266405    0.158343   -0.039826
H    -1.901448    1.289086   -0.172072   -0.282073   -0.343075    0.021343
H     2.334895    1.034094   -0.036100   -0.037981    0.060598   -0.006067
H    -0.071619   -2.162707   -0.633029   -0.283459    0.165526   -0.005875
13
* Frequency(33) 1903.6997
C     1.364302    0.533758   -0.017840   -0.013663   -0.002102   -0.000391
C     1.284098   -0.792561    0.093701    0.019667   -0.034370    0.003911
N    -0.017650   -1.442101    0.117833    0.029569    0.072978   -0.005320
C    -1.428859   -0.733006    0.012851   -1.222947   -0.973885    0.044436
N    -1.051823    0.733682   -0.099249    0.108805    0.236527   -0.016785
C     0.174664    1.430433   -0.122546    0.057929    0.343673   -0.026216
O    -2.241578   -1.145755    0.022574    0.820246    0.462867   -0.013806
O     0.191188    2.568723   -0.215132   -0.020459   -0.235093    0.018562
H     2.130201   -1.480011    0.174150    0.063273   -0.013493    0.003047
H    -0.145214   -1.994409    0.979737   -0.266405    0.158343   -0.039826
H    -1.933504    1.250097   -0.169647   -0.282073   -0.343075    0.021343
H     2.330578    1.040981   -0.036790   -0.037981    0.060598   -0.006067
H    -0.103833   -2.143895   -0.633696   -0.283459    0.165526   -0.005875
13
* Frequency(33) 1903.6997
C     1.362918    0.533546   -0.017880   -0.013663   -0.002102   -0.000391
C     1.286091   -0.796044    0.094098    0.019667   -0.034370    0.003911
N    -0.014654   -1.434707    0.117294    0.029569    0.072978   -0.005320
C    -1.552780   -0.831690    0.017354   -1.222947   -0.973885    0.044436
N    -1.040798    0.757649   -0.100949    0.108805    0.236527   -0.016785
C     0.180534    1.465257   -0.125202    0.057929    0.343673   -0.026216
O    -2.158463   -1.098853    0.021175    0.820246    0.462867   -0.013806
O     0.189115    2.544901   -0.213251   -0.020459   -0.235093    0.018562
H     2.136612   -1.481378    0.174459    0.063273   -0.013493    0.003047
H    -0.172209   -1.978364    0.975702   -0.266405    0.158343   -0.039826
H    -1.962087    1.215334   -0.167484   -0.282073   -0.343075    0.021343
H     2.326730    1.047121   -0.037404   -0.037981    0.060598   -0.006067
H    -0.132555   -2.127123   -0.634292   -0.283459    0.165526   -0.005875
13
* Frequency(33) 1903.6997
C     1.361852    0.533382   -0.017910   -0.013663   -0.002102   -0.000391
C     1.287625   -0.798726    0.094403    0.019667   -0.034370    0.003911
N    -0.012347   -1.429012    0.116879    0.029569    0.072978   -0.005320
C    -1.648211   -0.907686    0.020821   -1.222947   -0.973885    0.044436
N    -1.032307    0.776106   -0.102259    0.108805    0.236527   -0.016785
C     0.185055    1.492075   -0.127248    0.057929    0.343673   -0.026216
O    -2.094456   -1.062733    0.020098    0.820246    0.462867   -0.013806
O     0.187518    2.526556   -0.211802   -0.020459   -0.235093    0.018562
H     2.141549   -1.482431    0.174696    0.063273   -0.013493    0.003047
H    -0.192997   -1.966008    0.972594   -0.266405    0.158343   -0.039826
H    -1.984098    1.188562   -0.165819   -0.282073   -0.343075    0.021343
H     2.323766    1.051850   -0.037878   -0.037981    0.060598   -0.006067
H    -0.154675   -2.114206   -0.634750   -0.283459    0.165526   -0.005875
13
* Frequency(33) 1903.6997
C     1.361219    0.533284   -0.017928   -0.013663   -0.002102   -0.000391
C     1.288536   -0.800317    0.094584    0.019667   -0.034370    0.003911
N    -0.010978   -1.425634    0.116632    0.029569    0.072978   -0.005320
C    -1.704811   -0.952759    0.022878   -1.222947   -0.973885    0.044436
N    -1.027271    0.787053   -0.103036    0.108805    0.236527   -0.016785
C     0.187736    1.507981   -0.128461    0.057929    0.343673   -0.026216
O    -2.056494   -1.041311    0.019459    0.820246    0.462867   -0.013806
O     0.186571    2.515676   -0.210943   -0.020459   -0.235093    0.018562
H     2.144478   -1.483056    0.174837    0.063273   -0.013493    0.003047
H    -0.205327   -1.958680    0.970751   -0.266405    0.158343   -0.039826
H    -1.997153    1.172684   -0.164831   -0.282073   -0.343075    0.021343
H     2.322008    1.054654   -0.038159   -0.037981    0.060598   -0.006067
H    -0.167794   -2.106545   -0.635022   -0.283459    0.165526   -0.005875
13
* Frequency(33) 1903.6997
C     1.361089    0.533264   -0.017932   -0.013663   -0.002102   -0.000391
C     1.288723   -0.800644    0.094621    0.019667   -0.034370    0.003911
N    -0.010697   -1.424940    0.116582    0.029569    0.072978   -0.005320
C    -1.716447   -0.962025    0.023301   -1.222947   -0.973885    0.044436
N    -1.026236    0.789304   -0.103196    0.108805    0.236527   -0.016785
C     0.188287    1.511251   -0.128711    0.057929    0.343673   -0.026216
O    -2.048689   -1.036907    0.019328    0.820246    0.462867   -0.013806
O     0.186377    2.513439   -0.210767   -0.020459   -0.235093    0.018562
H     2.145080   -1.483184    0.174866    0.063273   -0.013493    0.003047
H    -0.207862   -1.957173    0.970372   -0.266405    0.158343   -0.039826
H    -1.999836    1.169420   -0.164628   -0.282073   -0.343075    0.021343
H     2.321647    1.055231   -0.038216   -0.037981    0.060598   -0.006067
H    -0.170491   -2.104970   -0.635078   -0.283459    0.165526   -0.005875
13
* Frequency(33) 1903.6997
C     1.361476    0.533324   -0.017921   -0.013663   -0.002102   -0.000391
C     1.288167   -0.799672    0.094510    0.019667   -0.034370    0.003911
N    -0.011533   -1.427004    0.116732    0.029569    0.072978   -0.005320
C    -1.681857   -0.934480    0.022044   -1.222947   -0.973885    0.044436
N    -1.029314    0.782614   -0.102721    0.108805    0.236527   -0.016785
C     0.186649    1.501530   -0.127969    0.057929    0.343673   -0.026216
O    -2.071889   -1.049999    0.019718    0.820246    0.462867   -0.013806
O     0.186955    2.520088   -0.211292   -0.020459   -0.235093    0.018562
H     2.143290   -1.482803    0.174780    0.063273   -0.013493    0.003047
H    -0.200327   -1.961652    0.971498   -0.266405    0.158343   -0.039826
H    -1.991858    1.179123   -0.165232   -0.282073   -0.343075    0.021343
H     2.322721    1.053517   -0.038045   -0.037981    0.060598   -0.006067
H    -0.162473   -2.109652   -0.634912   -0.283459    0.165526   -0.005875
13
* Frequency(33) 1903.6997
C     1.362337    0.533456   -0.017896   -0.013663   -0.002102   -0.000391
C     1.286927   -0.797506    0.094264    0.019667   -0.034370    0.003911
N    -0.013397   -1.431603    0.117067    0.029569    0.072978   -0.005320
C    -1.604790   -0.873108    0.019244   -1.222947   -0.973885    0.044436
N    -1.036170    0.767708   -0.101663    0.108805    0.236527   -0.016785
C     0.182998    1.479873   -0.126317    0.057929    0.343673   -0.026216
O    -2.123579   -1.079167    0.020588    0.820246    0.462867   -0.013806
O     0.188245    2.534903   -0.212461   -0.020459   -0.235093    0.018562
H     2.139303   -1.481952    0.174588    0.063273   -0.013493    0.003047
H    -0.183539   -1.971630    0.974008   -0.266405    0.158343   -0.039826
H    -1.974083    1.200743   -0.166577   -0.282073   -0.343075    0.021343
H     2.325115    1.049698   -0.037662   -0.037981    0.060598   -0.006067
H    -0.144611   -2.120083   -0.634542   -0.283459    0.165526   -0.005875
13
* Frequency(33) 1903.6997
C     1.363579    0.533647   -0.017861   -0.013663   -0.002102   -0.000391
C     1.285139   -0.794381    0.093908    0.019667   -0.034370    0.003911
N    -0.016085   -1.438238    0.117551    0.029569    0.072978   -0.005320
C    -1.493598   -0.784561    0.015203   -1.222947   -0.973885    0.044436
N    -1.046063    0.746203   -0.100137    0.108805    0.236527   -0.016785
C     0.177731    1.448626   -0.123933    0.057929    0.343673   -0.026216
O    -2.198157   -1.121252    0.021843    0.820246    0.462867   -0.013806
O     0.190105    2.556278   -0.214149   -0.020459   -0.235093    0.018562
H     2.133550   -1.480726    0.174311    0.063273   -0.013493    0.003047
H    -0.159317   -1.986027    0.977629   -0.266405    0.158343   -0.039826
H    -1.948436    1.231936   -0.168517   -0.282073   -0.343075    0.021343
H     2.328568    1.044188   -0.037111   -0.037981    0.060598   -0.006067
H    -0.118838   -2.135133   -0.634007   -0.283459    0.165526   -0.005875
13
* Frequency(33) 1903.6997
C     1.365068    0.533876   -0.017818   -0.013663   -0.002102   -0.000391
C     1.282996   -0.790635    0.093482    0.019667   -0.034370    0.003911
N    -0.019307   -1.446191    0.118131    0.029569    0.072978   -0.005320
C    -1.360329   -0.678433    0.010361   -1.222947   -0.973885    0.044436
N    -1.057920    0.720428   -0.098308    0.108805    0.236527   -0.016785
C     0.171418    1.411174   -0.121077    0.057929    0.343673   -0.026216
O    -2.287542   -1.171692    0.023348    0.820246    0.462867   -0.013806
O     0.192334    2.581897   -0.216172   -0.020459   -0.235093    0.018562
H     2.126655   -1.479255    0.173979    0.063273   -0.013493    0.003047
H    -0.130286   -2.003282    0.981969   -0.266405    0.158343   -0.039826
H    -1.917698    1.269322   -0.170843   -0.282073   -0.343075    0.021343
H     2.332707    1.037585   -0.036450   -0.037981    0.060598   -0.006067
H    -0.087949   -2.153171   -0.633367   -0.283459    0.165526   -0.005875
13
* Frequency(33) 1903.6997
C     1.366642    0.534118   -0.017773   -0.013663   -0.002102   -0.000391
C     1.280730   -0.786675    0.093031    0.019667   -0.034370    0.003911
N    -0.022714   -1.454599    0.118744    0.029569    0.072978   -0.005320
C    -1.219426   -0.566226    0.005241   -1.222947   -0.973885    0.044436
N    -1.070456    0.693176   -0.096374    0.108805    0.236527   -0.016785
C     0.164744    1.371578   -0.118056    0.057929    0.343673   -0.026216
O    -2.382048   -1.225022    0.024939    0.820246    0.462867   -0.013806
O     0.194691    2.608984   -0.218311   -0.020459   -0.235093    0.018562
H     2.119365   -1.477700    0.173628    0.063273   -0.013493    0.003047
H    -0.099591   -2.021526    0.986558   -0.266405    0.158343   -0.039826
H    -1.885198    1.308850   -0.173302   -0.282073   -0.343075    0.021343
H     2.337083    1.030603   -0.035750   -0.037981    0.060598   -0.006067
H    -0.055289   -2.172242   -0.632690   -0.283459    0.165526   -0.005875
13
* Frequency(33) 1903.6997
C     1.368131    0.534347   -0.017730   -0.013663   -0.002102   -0.000391
C     1.278587   -0.782930    0.092605    0.019667   -0.034370    0.003911
N    -0.025936   -1.462552    0.119323    0.029569    0.072978   -0.005320
C    -1.086157   -0.460098    0.000399   -1.222947   -0.973885    0.044436
N    -1.082313    0.667401   -0.094545    0.108805    0.236527   -0.016785
C     0.158431    1.334126   -0.115199    0.057929    0.343673   -0.026216
O    -2.471433   -1.275462    0.026443    0.820246    0.462867   -0.013806
O     0.196921    2.634602   -0.220333   -0.020459   -0.235093    0.018562
H     2.112470   -1.476230    0.173296    0.063273   -0.013493    0.003047
H    -0.070560   -2.038781    0.990898   -0.266405    0.158343   -0.039826
H    -1.854460    1.346236   -0.175628   -0.282073   -0.343075    0.021343
H     2.341222    1.024000   -0.035089   -0.037981    0.060598   -0.006067
H    -0.024400   -2.190280   -0.632050   -0.283459    0.165526   -0.005875
13
* Frequency(33) 1903.6997
C     1.369373    0.534539   -0.017695   -0.013663   -0.002102   -0.000391
C     1.276799   -0.779805    0.092250    0.019667   -0.034370    0.003911
N    -0.028625   -1.469187    0.119807    0.029569    0.072978   -0.005320
C    -0.974965   -0.371551   -0.003641   -1.222947   -0.973885    0.044436
N    -1.092206    0.645895   -0.093019    0.108805    0.236527   -0.016785
C     0.153164    1.302879   -0.112816    0.057929    0.343673   -0.026216
O    -2.546011   -1.317547    0.027698    0.820246    0.462867   -0.013806
O     0.198781    2.655977   -0.222021   -0.020459   -0.235093    0.018562
H     2.106717   -1.475003    0.173019    0.063273   -0.013493    0.003047
H    -0.046338   -2.053178    0.994519   -0.266405    0.158343   -0.039826
H    -1.828813    1.377429   -0.177568   -0.282073   -0.343075    0.021343
H     2.344675    1.018490   -0.034538   -0.037981    0.060598   -0.006067
H     0.001373   -2.205330   -0.631516   -0.283459    0.165526   -0.005875
13
* Frequency(33) 1903.6997
C     1.370234    0.534671   -0.017670   -0.013663   -0.002102   -0.000391
C     1.275559   -0.777639    0.092003    0.019667   -0.034370    0.003911
N    -0.030488   -1.473786    0.120142    0.029569    0.072978   -0.005320
C    -0.897898   -0.310179   -0.006442   -1.222947   -0.973885    0.044436
N    -1.099062    0.630990   -0.091961    0.108805    0.236527   -0.016785
C     0.149514    1.281222   -0.111164    0.057929    0.343673   -0.026216
O    -2.597701   -1.346716    0.028568    0.820246    0.462867   -0.013806
O     0.200070    2.670792   -0.223191   -0.020459   -0.235093    0.018562
H     2.102730   -1.474153    0.172827    0.063273   -0.013493    0.003047
H    -0.029550   -2.063156    0.997028   -0.266405    0.158343   -0.039826
H    -1.811038    1.399049   -0.178913   -0.282073   -0.343075    0.021343
H     2.347068    1.014671   -0.034155   -0.037981    0.060598   -0.006067
H     0.019235   -2.215761   -0.631146   -0.283459    0.165526   -0.005875
13
* Frequency(33) 1903.6997
C     1.370620    0.534730   -0.017659   -0.013663   -0.002102   -0.000391
C     1.275003   -0.776667    0.091892    0.019667   -0.034370    0.003911
N    -0.031324   -1.475850    0.120293    0.029569    0.072978   -0.005320
C    -0.863308   -0.282634   -0.007698   -1.222947   -0.973885    0.044436
N    -1.102140    0.624300   -0.091486    0.108805    0.236527   -0.016785
C     0.147875    1.271501   -0.110422    0.057929    0.343673   -0.026216
O    -2.620901   -1.359807    0.028959    0.820246    0.462867   -0.013806
O     0.200649    2.677442   -0.223716   -0.020459   -0.235093    0.018562
H     2.100940   -1.473771    0.172741    0.063273   -0.013493    0.003047
H    -0.022015   -2.067635    0.998155   -0.266405    0.158343   -0.039826
H    -1.803059    1.408752   -0.179517   -0.282073   -0.343075    0.021343
H     2.348143    1.012957   -0.033984   -0.037981    0.060598   -0.006067
H     0.027253   -2.220443   -0.630979   -0.283459    0.165526   -0.005875
13
* Frequency(33) 1903.6997
C     1.370491    0.534710   -0.017663   -0.013663   -0.002102   -0.000391
C     1.275190   -0.776994    0.091930    0.019667   -0.034370    0.003911
N    -0.031043   -1.475156    0.120242    0.029569    0.072978   -0.005320
C    -0.874944   -0.291900   -0.007276   -1.222947   -0.973885    0.044436
N    -1.101104    0.626550   -0.091646    0.108805    0.236527   -0.016785
C     0.148426    1.274771   -0.110672    0.057929    0.343673   -0.026216
O    -2.613096   -1.355403    0.028827    0.820246    0.462867   -0.013806
O     0.200454    2.675205   -0.223539   -0.020459   -0.235093    0.018562
H     2.101542   -1.473900    0.172770    0.063273   -0.013493    0.003047
H    -0.024550   -2.066128    0.997776   -0.266405    0.158343   -0.039826
H    -1.805743    1.405488   -0.179314   -0.282073   -0.343075    0.021343
H     2.347781    1.013534   -0.034041   -0.037981    0.060598   -0.006067
H     0.024556   -2.218868   -0.631035   -0.283459    0.165526   -0.005875
13
* Frequency(33) 1903.6997
C     1.369858    0.534613   -0.017681   -0.013663   -0.002102   -0.000391
C     1.276100   -0.778585    0.092111    0.019667   -0.034370    0.003911
N    -0.029675   -1.471778    0.119996    0.029569    0.072978   -0.005320
C    -0.931544   -0.336973   -0.005219   -1.222947   -0.973885    0.044436
N    -1.096069    0.637497   -0.092423    0.108805    0.236527   -0.016785
C     0.151107    1.290677   -0.111885    0.057929    0.343673   -0.026216
O    -2.575134   -1.333981    0.028189    0.820246    0.462867   -0.013806
O     0.199507    2.664324   -0.222680   -0.020459   -0.235093    0.018562
H     2.104471   -1.474524    0.172911    0.063273   -0.013493    0.003047
H    -0.036880   -2.058800    0.995933   -0.266405    0.158343   -0.039826
H    -1.818798    1.389610   -0.178326   -0.282073   -0.343075    0.021343
H     2.346023    1.016338   -0.034322   -0.037981    0.060598   -0.006067
H     0.011437   -2.211207   -0.631307   -0.283459    0.165526   -0.005875
13
* Frequency(33) 1903.6997
C     1.368792    0.534449   -0.017711   -0.013663   -0.002102   -0.000391
C     1.277635   -0.781267    0.092416    0.019667   -0.034370    0.003911
N    -0.027367   -1.466084    0.119581    0.029569    0.072978   -0.005320
C    -1.026975   -0.412969   -0.001751   -1.222947   -0.973885    0.044436
N    -1.087578    0.655954   -0.093733    0.108805    0.236527   -0.016785
C     0.155628    1.317495   -0.113931    0.057929    0.343673   -0.026216
O    -2.511127   -1.297862    0.027111    0.820246    0.462867   -0.013806
O     0.197911    2.645979   -0.221232   -0.020459   -0.235093    0.018562
H     2.109408   -1.475577    0.173148    0.063273   -0.013493    0.003047
H    -0.057668   -2.046444    0.992825   -0.266405    0.158343   -0.039826
H    -1.840809    1.362838   -0.176661   -0.282073   -0.343075    0.021343
H     2.343060    1.021067   -0.034796   -0.037981    0.060598   -0.006067
H    -0.010683   -2.198290   -0.631766   -0.283459    0.165526   -0.005875
13
* Frequency(33) 1903.6997
C     1.367408    0.534236   -0.017751   -0.013663   -0.002102   -0.000391
C     1.279628   -0.784749    0.092812    0.019667   -0.034370    0.003911
N    -0.024371   -1.458689    0.119042    0.029569    0.072978   -0.005320
C    -1.150896   -0.511653    0.002751   -1.222947   -0.973885    0.044436
N    -1.076553    0.679922   -0.095434    0.108805    0.236527   -0.016785
C     0.161498    1.352319   -0.116587    0.057929    0.343673   -0.026216
O    -2.428012   -1.250960    0.025712    0.820246    0.462867   -0.013806
O     0.195838    2.622157   -0.219351   -0.020459   -0.235093    0.018562
H     2.115819   -1.476944    0.173457    0.063273   -0.013493    0.003047
H    -0.084663   -2.030399    0.988789   -0.266405    0.158343   -0.039826
H    -1.869392    1.328075   -0.174498   -0.282073   -0.343075    0.021343
H     2.339211    1.027207   -0.035410   -0.037981    0.060598   -0.006067
H    -0.039405   -2.181518   -0.632361   -0.283459    0.165526   -0.005875
13
* Frequency(33) 1903.6997
C     1.365855    0.533997   -0.017795   -0.013663   -0.002102   -0.000391
C     1.281863   -0.788655    0.093257    0.019667   -0.034370    0.003911
N    -0.021011   -1.450395    0.118437    0.029569    0.072978   -0.005320
C    -1.289878   -0.622329    0.007801   -1.222947   -0.973885    0.044436
N    -1.064188    0.706802   -0.097341    0.108805    0.236527   -0.016785
C     0.168081    1.391376   -0.119566    0.057929    0.343673   -0.026216
O    -2.334795   -1.198357    0.024143    0.820246    0.462867   -0.013806
O     0.193513    2.595440   -0.217241   -0.020459   -0.235093    0.018562
H     2.123010   -1.478478    0.173803    0.063273   -0.013493    0.003047
H    -0.114939   -2.012404    0.984263   -0.266405    0.158343   -0.039826
H    -1.901448    1.289086   -0.172072   -0.282073   -0.343075    0.021343
H     2.334895    1.034094   -0.036100   -0.037981    0.060598   -0.006067
H    -0.071619   -2.162707   -0.633029   -0.283459    0.165526   -0.005875
