13
* (null), Energy   -1000.0000000
C     1.653111    0.338806   -0.072409    0.070287   -0.087809   -0.045767
C     1.417036   -0.968802    0.212159    0.114621   -0.082617    0.164277
N     0.169278   -1.530502    0.333752    0.053549    0.017352    0.179696
C    -1.013486   -0.875739    0.188129    0.026658   -0.003564   -0.287841
N    -0.831970    0.606548   -0.032497   -0.243986   -0.094863   -0.031134
C     0.583167    1.266264   -0.274550    0.101072    0.131461    0.122312
O    -2.113843   -1.335674    0.228076   -0.012727    0.099485    0.096373
O     0.565830    2.420049   -0.573838   -0.029727    0.068608   -0.058226
H     2.239204   -1.673303    0.354845    0.100565   -0.176920   -0.169931
H     0.099186   -2.533091    0.514228   -0.025835   -0.302074   -1.609124
H    -1.444922    0.886451   -0.818414   -0.314396    0.135279    0.108028
H     2.672257    0.711579   -0.172265    0.080669   -0.255018   -0.628405
H    -1.242310    1.089691    0.787885   -0.246180   -0.485395    0.189837
13
* Frequency(16)  709.6429
C     1.661099    0.328827   -0.077610    0.070287   -0.087809   -0.045767
C     1.430062   -0.978191    0.230828    0.114621   -0.082617    0.164277
N     0.175364   -1.528530    0.354173    0.053549    0.017352    0.179696
C    -1.010457   -0.876144    0.155418    0.026658   -0.003564   -0.287841
N    -0.859697    0.595768   -0.036035   -0.243986   -0.094863   -0.031134
C     0.594653    1.281204   -0.260649    0.101072    0.131461    0.122312
O    -2.115290   -1.324368    0.239029   -0.012727    0.099485    0.096373
O     0.562452    2.427846   -0.580455   -0.029727    0.068608   -0.058226
H     2.250633   -1.693409    0.335533    0.100565   -0.176920   -0.169931
H     0.096250   -2.567421    0.331360   -0.025835   -0.302074   -1.609124
H    -1.480652    0.901824   -0.806137   -0.314396    0.135279    0.108028
H     2.681424    0.682598   -0.243680    0.080669   -0.255018   -0.628405
H    -1.270287    1.034528    0.809459   -0.246180   -0.485395    0.189837
13
* Frequency(16)  709.6429
C     1.668221    0.319930   -0.082247    0.070287   -0.087809   -0.045767
C     1.441677   -0.986562    0.247474    0.114621   -0.082617    0.164277
N     0.180790   -1.526772    0.372382    0.053549    0.017352    0.179696
C    -1.007755   -0.876505    0.126251    0.026658   -0.003564   -0.287841
N    -0.884420    0.586155   -0.039190   -0.243986   -0.094863   -0.031134
C     0.604895    1.294525   -0.248256    0.101072    0.131461    0.122312
O    -2.116579   -1.314287    0.248794   -0.012727    0.099485    0.096373
O     0.559439    2.434798   -0.586355   -0.029727    0.068608   -0.058226
H     2.260823   -1.711336    0.318314    0.100565   -0.176920   -0.169931
H     0.093633   -2.598030    0.168308   -0.025835   -0.302074   -1.609124
H    -1.512509    0.915532   -0.795191   -0.314396    0.135279    0.108028
H     2.689599    0.656757   -0.307356    0.080669   -0.255018   -0.628405
H    -1.295233    0.985343    0.828695   -0.246180   -0.485395    0.189837
13
* Frequency(16)  709.6429
C     1.673706    0.313078   -0.085819    0.070287   -0.087809   -0.045767
C     1.450621   -0.993009    0.260293    0.114621   -0.082617    0.164277
N     0.184969   -1.525418    0.386404    0.053549    0.017352    0.179696
C    -1.005675   -0.876784    0.103790    0.026658   -0.003564   -0.287841
N    -0.903459    0.578753   -0.041619   -0.243986   -0.094863   -0.031134
C     0.612782    1.304784   -0.238711    0.101072    0.131461    0.122312
O    -2.117573   -1.306524    0.256314   -0.012727    0.099485    0.096373
O     0.557120    2.440152   -0.590898   -0.029727    0.068608   -0.058226
H     2.268670   -1.725142    0.305054    0.100565   -0.176920   -0.169931
H     0.091617   -2.621602    0.042742   -0.025835   -0.302074   -1.609124
H    -1.537043    0.926089   -0.786761   -0.314396    0.135279    0.108028
H     2.695894    0.636857   -0.356392    0.080669   -0.255018   -0.628405
H    -1.314443    0.947466    0.843509   -0.246180   -0.485395    0.189837
13
* Frequency(16)  709.6429
C     1.676959    0.309014   -0.087937    0.070287   -0.087809   -0.045767
C     1.455926   -0.996833    0.267896    0.114621   -0.082617    0.164277
N     0.187447   -1.524615    0.394721    0.053549    0.017352    0.179696
C    -1.004441   -0.876948    0.090468    0.026658   -0.003564   -0.287841
N    -0.914752    0.574362   -0.043060   -0.243986   -0.094863   -0.031134
C     0.617460    1.310868   -0.233050    0.101072    0.131461    0.122312
O    -2.118162   -1.301919    0.260775   -0.012727    0.099485    0.096373
O     0.555744    2.443327   -0.593593   -0.029727    0.068608   -0.058226
H     2.273325   -1.733330    0.297189    0.100565   -0.176920   -0.169931
H     0.090421   -2.635582   -0.031731   -0.025835   -0.302074   -1.609124
H    -1.551594    0.932350   -0.781761   -0.314396    0.135279    0.108028
H     2.699627    0.625054   -0.385476    0.080669   -0.255018   -0.628405
H    -1.325837    0.925001    0.852295   -0.246180   -0.485395    0.189837
13
* Frequency(16)  709.6429
C     1.677628    0.308178   -0.088372    0.070287   -0.087809   -0.045767
C     1.457017   -0.997619    0.269459    0.114621   -0.082617    0.164277
N     0.187956   -1.524450    0.396431    0.053549    0.017352    0.179696
C    -1.004188   -0.876982    0.087729    0.026658   -0.003564   -0.287841
N    -0.917073    0.573460   -0.043356   -0.243986   -0.094863   -0.031134
C     0.618421    1.312119   -0.231886    0.101072    0.131461    0.122312
O    -2.118283   -1.300973    0.261692   -0.012727    0.099485    0.096373
O     0.555461    2.443980   -0.594147   -0.029727    0.068608   -0.058226
H     2.274281   -1.735013    0.295572    0.100565   -0.176920   -0.169931
H     0.090175   -2.638456   -0.047041   -0.025835   -0.302074   -1.609124
H    -1.554585    0.933637   -0.780733   -0.314396    0.135279    0.108028
H     2.700395    0.622628   -0.391455    0.080669   -0.255018   -0.628405
H    -1.328179    0.920382    0.854101   -0.246180   -0.485395    0.189837
13
* Frequency(16)  709.6429
C     1.675640    0.310662   -0.087078    0.070287   -0.087809   -0.045767
C     1.453775   -0.995282    0.264813    0.114621   -0.082617    0.164277
N     0.186442   -1.524941    0.391348    0.053549    0.017352    0.179696
C    -1.004942   -0.876882    0.095871    0.026658   -0.003564   -0.287841
N    -0.910172    0.576143   -0.042476   -0.243986   -0.094863   -0.031134
C     0.615563    1.308400   -0.235346    0.101072    0.131461    0.122312
O    -2.117923   -1.303787    0.258966   -0.012727    0.099485    0.096373
O     0.556302    2.442040   -0.592500   -0.029727    0.068608   -0.058226
H     2.271437   -1.730009    0.300378    0.100565   -0.176920   -0.169931
H     0.090906   -2.629912   -0.001529   -0.025835   -0.302074   -1.609124
H    -1.545693    0.929810   -0.783789   -0.314396    0.135279    0.108028
H     2.698113    0.629841   -0.373681    0.080669   -0.255018   -0.628405
H    -1.321216    0.934111    0.848732   -0.246180   -0.485395    0.189837
13
* Frequency(16)  709.6429
C     1.671211    0.316195   -0.084194    0.070287   -0.087809   -0.045767
C     1.446552   -0.990076    0.254461    0.114621   -0.082617    0.164277
N     0.183067   -1.526034    0.380024    0.053549    0.017352    0.179696
C    -1.006622   -0.876657    0.114009    0.026658   -0.003564   -0.287841
N    -0.894797    0.582121   -0.040514   -0.243986   -0.094863   -0.031134
C     0.609193    1.300116   -0.243054    0.101072    0.131461    0.122312
O    -2.117121   -1.310056    0.252893   -0.012727    0.099485    0.096373
O     0.558175    2.437716   -0.588831   -0.029727    0.068608   -0.058226
H     2.265100   -1.718860    0.311087    0.100565   -0.176920   -0.169931
H     0.092534   -2.610876    0.099874   -0.025835   -0.302074   -1.609124
H    -1.525880    0.921286   -0.790596   -0.314396    0.135279    0.108028
H     2.693029    0.645911   -0.334081    0.080669   -0.255018   -0.628405
H    -1.305702    0.964700    0.836769   -0.246180   -0.485395    0.189837
13
* Frequency(16)  709.6429
C     1.664820    0.324179   -0.080033    0.070287   -0.087809   -0.045767
C     1.436130   -0.982564    0.239524    0.114621   -0.082617    0.164277
N     0.178199   -1.527612    0.363686    0.053549    0.017352    0.179696
C    -1.009045   -0.876333    0.140180    0.026658   -0.003564   -0.287841
N    -0.872613    0.590746   -0.037683   -0.243986   -0.094863   -0.031134
C     0.600004    1.288163   -0.254175    0.101072    0.131461    0.122312
O    -2.115964   -1.319101    0.244130   -0.012727    0.099485    0.096373
O     0.560878    2.431478   -0.583537   -0.029727    0.068608   -0.058226
H     2.255956   -1.702774    0.326537    0.100565   -0.176920   -0.169931
H     0.094883   -2.583411    0.246178   -0.025835   -0.302074   -1.609124
H    -1.497295    0.908986   -0.800419   -0.314396    0.135279    0.108028
H     2.685695    0.669098   -0.276945    0.080669   -0.255018   -0.628405
H    -1.283319    1.008833    0.819508   -0.246180   -0.485395    0.189837
13
* Frequency(16)  709.6429
C     1.657160    0.333748   -0.075045    0.070287   -0.087809   -0.045767
C     1.423640   -0.973561    0.221622    0.114621   -0.082617    0.164277
N     0.172363   -1.529503    0.344104    0.053549    0.017352    0.179696
C    -1.011950   -0.875945    0.171547    0.026658   -0.003564   -0.287841
N    -0.846025    0.601083   -0.034290   -0.243986   -0.094863   -0.031134
C     0.588990    1.273838   -0.267503    0.101072    0.131461    0.122312
O    -2.114577   -1.329942    0.233628   -0.012727    0.099485    0.096373
O     0.564117    2.424002   -0.577192   -0.029727    0.068608   -0.058226
H     2.244997   -1.683495    0.345055    0.100565   -0.176920   -0.169931
H     0.097698   -2.550493    0.421530   -0.025835   -0.302074   -1.609124
H    -1.463034    0.894244   -0.812191   -0.314396    0.135279    0.108028
H     2.676904    0.696888   -0.208466    0.080669   -0.255018   -0.628405
H    -1.256492    1.061728    0.798821   -0.246180   -0.485395    0.189837
13
* Frequency(16)  709.6429
C     1.649062    0.343865   -0.069772    0.070287   -0.087809   -0.045767
C     1.410433   -0.964042    0.202695    0.114621   -0.082617    0.164277
N     0.166193   -1.531502    0.323400    0.053549    0.017352    0.179696
C    -1.015022   -0.875534    0.204711    0.026658   -0.003564   -0.287841
N    -0.817914    0.612013   -0.030703   -0.243986   -0.094863   -0.031134
C     0.577345    1.258691   -0.281596    0.101072    0.131461    0.122312
O    -2.113110   -1.341405    0.222524   -0.012727    0.099485    0.096373
O     0.567542    2.416097   -0.570483   -0.029727    0.068608   -0.058226
H     2.233411   -1.663110    0.364634    0.100565   -0.176920   -0.169931
H     0.100675   -2.515690    0.606927   -0.025835   -0.302074   -1.609124
H    -1.426811    0.878657   -0.824637   -0.314396    0.135279    0.108028
H     2.667610    0.726270   -0.136063    0.080669   -0.255018   -0.628405
H    -1.228128    1.117653    0.776949   -0.246180   -0.485395    0.189837
13
* Frequency(16)  709.6429
C     1.641403    0.353434   -0.064785    0.070287   -0.087809   -0.045767
C     1.397943   -0.955039    0.184793    0.114621   -0.082617    0.164277
N     0.160358   -1.533393    0.303818    0.053549    0.017352    0.179696
C    -1.017927   -0.875146    0.236078    0.026658   -0.003564   -0.287841
N    -0.791326    0.622351   -0.027311   -0.243986   -0.094863   -0.031134
C     0.566330    1.244366   -0.294925    0.101072    0.131461    0.122312
O    -2.111723   -1.352246    0.212022   -0.012727    0.099485    0.096373
O     0.570782    2.408620   -0.564138   -0.029727    0.068608   -0.058226
H     2.222452   -1.643831    0.383152    0.100565   -0.176920   -0.169931
H     0.103490   -2.482771    0.782279   -0.025835   -0.302074   -1.609124
H    -1.392550    0.863916   -0.836409   -0.314396    0.135279    0.108028
H     2.658819    0.754061   -0.067584    0.080669   -0.255018   -0.628405
H    -1.201301    1.170548    0.756261   -0.246180   -0.485395    0.189837
13
* Frequency(16)  709.6429
C     1.635012    0.361418   -0.060623    0.070287   -0.087809   -0.045767
C     1.387521   -0.947528    0.169857    0.114621   -0.082617    0.164277
N     0.155489   -1.534971    0.287479    0.053549    0.017352    0.179696
C    -1.020351   -0.874822    0.262249    0.026658   -0.003564   -0.287841
N    -0.769142    0.630976   -0.024480   -0.243986   -0.094863   -0.031134
C     0.557141    1.232413   -0.306045    0.101072    0.131461    0.122312
O    -2.110566   -1.361291    0.203260   -0.012727    0.099485    0.096373
O     0.573485    2.402382   -0.558844   -0.029727    0.068608   -0.058226
H     2.213308   -1.627745    0.398602    0.100565   -0.176920   -0.169931
H     0.105839   -2.455306    0.928583   -0.025835   -0.302074   -1.609124
H    -1.363964    0.851616   -0.846232   -0.314396    0.135279    0.108028
H     2.651484    0.777247   -0.010448    0.080669   -0.255018   -0.628405
H    -1.178918    1.214681    0.739001   -0.246180   -0.485395    0.189837
13
* Frequency(16)  709.6429
C     1.630583    0.366951   -0.057739    0.070287   -0.087809   -0.045767
C     1.380298   -0.942321    0.159505    0.114621   -0.082617    0.164277
N     0.152115   -1.536064    0.276156    0.053549    0.017352    0.179696
C    -1.022031   -0.874597    0.280388    0.026658   -0.003564   -0.287841
N    -0.753767    0.636954   -0.022518   -0.243986   -0.094863   -0.031134
C     0.550772    1.224129   -0.313753    0.101072    0.131461    0.122312
O    -2.109764   -1.367561    0.197187   -0.012727    0.099485    0.096373
O     0.575358    2.398059   -0.555175   -0.029727    0.068608   -0.058226
H     2.206971   -1.616596    0.409311    0.100565   -0.176920   -0.169931
H     0.107467   -2.436271    1.029986   -0.025835   -0.302074   -1.609124
H    -1.344152    0.843091   -0.853039   -0.314396    0.135279    0.108028
H     2.646401    0.793318    0.029152    0.080669   -0.255018   -0.628405
H    -1.163404    1.245270    0.727038   -0.246180   -0.485395    0.189837
13
* Frequency(16)  709.6429
C     1.628595    0.369435   -0.056445    0.070287   -0.087809   -0.045767
C     1.377056   -0.939985    0.154858    0.114621   -0.082617    0.164277
N     0.150600   -1.536555    0.271073    0.053549    0.017352    0.179696
C    -1.022785   -0.874496    0.288530    0.026658   -0.003564   -0.287841
N    -0.746866    0.639637   -0.021637   -0.243986   -0.094863   -0.031134
C     0.547913    1.220410   -0.317213    0.101072    0.131461    0.122312
O    -2.109404   -1.370374    0.194461   -0.012727    0.099485    0.096373
O     0.576199    2.396118   -0.553528   -0.029727    0.068608   -0.058226
H     2.204126   -1.611592    0.414117    0.100565   -0.176920   -0.169931
H     0.108198   -2.427727    1.075498   -0.025835   -0.302074   -1.609124
H    -1.335260    0.839265   -0.856095   -0.314396    0.135279    0.108028
H     2.644119    0.800531    0.046926    0.080669   -0.255018   -0.628405
H    -1.156442    1.258999    0.721669   -0.246180   -0.485395    0.189837
13
* Frequency(16)  709.6429
C     1.629264    0.368599   -0.056880    0.070287   -0.087809   -0.045767
C     1.378147   -0.940771    0.156421    0.114621   -0.082617    0.164277
N     0.151110   -1.536390    0.272783    0.053549    0.017352    0.179696
C    -1.022531   -0.874530    0.285791    0.026658   -0.003564   -0.287841
N    -0.749188    0.638735   -0.021933   -0.243986   -0.094863   -0.031134
C     0.548874    1.221661   -0.316049    0.101072    0.131461    0.122312
O    -2.109525   -1.369428    0.195378   -0.012727    0.099485    0.096373
O     0.575916    2.396771   -0.554082   -0.029727    0.068608   -0.058226
H     2.205083   -1.613275    0.412501    0.100565   -0.176920   -0.169931
H     0.107952   -2.430601    1.060188   -0.025835   -0.302074   -1.609124
H    -1.338251    0.840552   -0.855067   -0.314396    0.135279    0.108028
H     2.644886    0.798105    0.040947    0.080669   -0.255018   -0.628405
H    -1.158784    1.254380    0.723475   -0.246180   -0.485395    0.189837
13
* Frequency(16)  709.6429
C     1.632517    0.364535   -0.058998    0.070287   -0.087809   -0.045767
C     1.383452   -0.944594    0.164024    0.114621   -0.082617    0.164277
N     0.153588   -1.535587    0.281099    0.053549    0.017352    0.179696
C    -1.021297   -0.874695    0.272469    0.026658   -0.003564   -0.287841
N    -0.760480    0.634344   -0.023374   -0.243986   -0.094863   -0.031134
C     0.553552    1.227745   -0.310388    0.101072    0.131461    0.122312
O    -2.110114   -1.364823    0.199838   -0.012727    0.099485    0.096373
O     0.574540    2.399947   -0.556777   -0.029727    0.068608   -0.058226
H     2.209737   -1.621463    0.404636    0.100565   -0.176920   -0.169931
H     0.106756   -2.444581    0.985715   -0.025835   -0.302074   -1.609124
H    -1.352802    0.846813   -0.850067   -0.314396    0.135279    0.108028
H     2.648620    0.786302    0.011863    0.080669   -0.255018   -0.628405
H    -1.170177    1.231915    0.732261   -0.246180   -0.485395    0.189837
13
* Frequency(16)  709.6429
C     1.638001    0.357683   -0.062570    0.070287   -0.087809   -0.045767
C     1.392396   -0.951041    0.176843    0.114621   -0.082617    0.164277
N     0.157767   -1.534233    0.295122    0.053549    0.017352    0.179696
C    -1.019217   -0.874973    0.250008    0.026658   -0.003564   -0.287841
N    -0.779519    0.626942   -0.025804   -0.243986   -0.094863   -0.031134
C     0.561439    1.238004   -0.300844    0.101072    0.131461    0.122312
O    -2.111107   -1.357060    0.207359   -0.012727    0.099485    0.096373
O     0.572220    2.405300   -0.561321   -0.029727    0.068608   -0.058226
H     2.217585   -1.635269    0.391376    0.100565   -0.176920   -0.169931
H     0.104740   -2.468153    0.860149   -0.025835   -0.302074   -1.609124
H    -1.377335    0.857369   -0.841637   -0.314396    0.135279    0.108028
H     2.654915    0.766402   -0.037174    0.080669   -0.255018   -0.628405
H    -1.189388    1.194038    0.747075   -0.246180   -0.485395    0.189837
13
* Frequency(16)  709.6429
C     1.645124    0.348785   -0.067207    0.070287   -0.087809   -0.045767
C     1.404010   -0.959413    0.193490    0.114621   -0.082617    0.164277
N     0.163193   -1.532474    0.313330    0.053549    0.017352    0.179696
C    -1.016516   -0.875334    0.220841    0.026658   -0.003564   -0.287841
N    -0.804242    0.617329   -0.028959   -0.243986   -0.094863   -0.031134
C     0.571681    1.251325   -0.288450    0.101072    0.131461    0.122312
O    -2.112397   -1.346980    0.217124   -0.012727    0.099485    0.096373
O     0.569208    2.412252   -0.567221   -0.029727    0.068608   -0.058226
H     2.227775   -1.653196    0.374156    0.100565   -0.176920   -0.169931
H     0.102122   -2.498762    0.697097   -0.025835   -0.302074   -1.609124
H    -1.409193    0.871077   -0.830691   -0.314396    0.135279    0.108028
H     2.663089    0.740561   -0.100850    0.080669   -0.255018   -0.628405
H    -1.214333    1.144853    0.766311   -0.246180   -0.485395    0.189837
13
* Frequency(16)  709.6429
C     1.653111    0.338806   -0.072409    0.070287   -0.087809   -0.045767
C     1.417036   -0.968802    0.212159    0.114621   -0.082617    0.164277
N     0.169278   -1.530502    0.333752    0.053549    0.017352    0.179696
C    -1.013486   -0.875739    0.188129    0.026658   -0.003564   -0.287841
N    -0.831970    0.606548   -0.032497   -0.243986   -0.094863   -0.031134
C     0.583167    1.266264   -0.274550    0.101072    0.131461    0.122312
O    -2.113843   -1.335674    0.228076   -0.012727    0.099485    0.096373
O     0.565830    2.420049   -0.573838   -0.029727    0.068608   -0.058226
H     2.239204   -1.673303    0.354845    0.100565   -0.176920   -0.169931
H     0.099186   -2.533091    0.514228   -0.025835   -0.302074   -1.609124
H    -1.444922    0.886451   -0.818414   -0.314396    0.135279    0.108028
H     2.672257    0.711579   -0.172265    0.080669   -0.255018   -0.628405
H    -1.242310    1.089691    0.787885   -0.246180   -0.485395    0.189837
