
                                 *****************
                                 * O   R   C   A *
                                 *****************

                                            #,                                       
                                            ###                                      
                                            ####                                     
                                            #####                                    
                                            ######                                   
                                           ########,                                 
                                     ,,################,,,,,                         
                               ,,#################################,,                 
                          ,,##########################################,,             
                       ,#########################################, ''#####,          
                    ,#############################################,,   '####,        
                  ,##################################################,,,,####,       
                ,###########''''           ''''###############################       
              ,#####''   ,,,,##########,,,,          '''####'''          '####       
            ,##' ,,,,###########################,,,                        '##       
           ' ,,###''''                  '''############,,,                           
         ,,##''                                '''############,,,,        ,,,,,,###''
      ,#''                                            '''#######################'''  
     '                                                          ''''####''''         
             ,#######,   #######,   ,#######,      ##                                
            ,#'     '#,  ##    ##  ,#'     '#,    #''#        ,####,    ,#,          
            ##       ##  ##   ,#'  ##            #'  '#       #'       ,# #          
            ##       ##  #######   ##           ,######,      #####,      #          
            '#,     ,#'  ##    ##  '#,     ,#' ,#      #,     #,   #      #          
             '#######'   ##     ##  '#######'  #'      '#     '####' #    #          



                #########################################################
                #                        -***-                          #
                #          Department of theory and spectroscopy        #
                #                                                       #
                #                      Frank Neese                      #
                #                                                       #
                #     Directorship, Architecture, Infrastructure        #
                #                    SHARK, DRIVERS                     #
                #        Core code/Algorithms in most modules           #
                #                                                       #
                #        Max Planck Institute fuer Kohlenforschung      #
                #                Kaiser Wilhelm Platz 1                 #
                #                 D-45470 Muelheim/Ruhr                 #
                #                      Germany                          #
                #                                                       #
                #                  All rights reserved                  #
                #                        -***-                          #
                #########################################################


                         Program Version 6.1.0-f.0  -   RELEASE   -


 With contributions from (in alphabetic order):
[Max-Planck-Institut fuer Kohlenforschung]                               
  Daniel Aravena         : Magnetic Suceptibility                        
  Michael Atanasov       : Ab Initio Ligand Field Theory (pilot matlab implementation)
  Alexander A. Auer      : GIAO ZORA, VPT2 properties, NMR spectrum      
  Ute Becker             : All parallelization in ORCA, NUMFREQ, NUMCALC 
  Giovanni Bistoni       : ED, misc. LED, open-shell LED, HFLD           
  Dmytro Bykov           : pre 5.0 version of the SCF Hessian            
  Marcos Casanova-Páez   : Triplet and SCS-CIS(D). UHF-(DLPNO)-IP/EA/STEOM-CCSD. UHF-CVS-IP/STEOM-CCSD   
  Vijay G. Chilkuri      : MRCI spin determinant printing, contributions to CSF-ICE 
  Pauline Colinet        : FMM embedding                                 
  Dipayan Datta          : RHF DLPNO-CCSD density                        
  Achintya Kumar Dutta   : EOM-CC, STEOM-CC                              
  Nicolas Foglia         : Exact transition moments, OPA infrastructure, MCD improvements    
  Dmitry Ganyushin       : Spin-Orbit,Spin-Spin,Magnetic field MRCI      
  Miquel Garcia-Rates    : C-PCM and meta-GGA Hessian, CCSD/C-PCM, Gaussian charge scheme 
  Tiago L. C. Gouveia    : GS-ROHF, GS-ROCIS                             
  Yang Guo               : DLPNO-NEVPT2, F12-NEVPT2, CIM, IAO-localization        
  Andreas Hansen         : Spin unrestricted coupled pair/coupled cluster methods 
  Ingolf Harden          : AUTO-CI MPn and infrastructure                
  Benjamin Helmich-Paris : MC-RPA, TRAH-(SCF,CASSCF), AVAS, COSX integrals, SCF dyn. polar., MC-PDFT, srDFT 
  Lee Huntington         : MR-EOM, pCC                                   
  Robert Izsak           : Overlap fitted RIJCOSX, COSX-SCS-MP3, EOM     
  Riya Kayal             : Wick's Theorem for AUTO-CI, AUTO-CI UHF-CCSDT 
  Emily Kempfer          : AUTO-CI RHF CISDT and CCSDT, approximate NEVPT4
  Christian Kollmar      : KDIIS, OOCD, Brueckner-CCSD(T), CCSD density, CASPT2, CASPT2-K, improved NEVPT2 
  Axel Koslowski         : Symmetry handling                             
  Simone Kossmann        : meta-GGA functionals, TD-DFT gradient, OOMP2, (MP2 Hessian; deprecated post 5.0) 
  Lucas Lang             : DCDCAS, Hyperfine gauge corrections, ICE-SOC+SSC
  Marvin Lechner         : AUTO-CI (C++ implementation), FIC-MRCC        
  Spencer Leger          : CASSCF response                               
  Dagmar Lenk            : GEPOL surface, SMD, ORCA-2-JSON               
  Dimitrios Liakos       : Extrapolation schemes; Compound Job, Property file
  Dimitrios Manganas     : Further ROCIS development; embedding schemes. LFT, Crystal Embedding 
  Dimitrios Pantazis     : SARC Basis sets                               
  Anastasios Papadopoulos: AUTO-CI, single reference methods and gradients 
  Taras Petrenko         : pre 6.0 DFT Hessian and TD-DFT gradient,  ECA, NRVS 
  Petra Pikulova         : Analytic Raman intensities                    
  Peter Pinski           : DLPNO-MP2, DLPNO-MP2 Gradient                 
  Shashank Vittal Rao    : ES-AILFT, MagRelax                            
  Christoph Reimann      : Effective Core Potentials                     
  Marius Retegan         : Local ZFS, SOC                                
  Christoph Riplinger    : Optimizer, TS searches, QM/MM, DLPNO-CCSD(T), (RO)-DLPNO pert. Triples 
  Michael Roemelt        : Original ROCIS implementation, recursive CI coupling coefficients
  Masaaki Saitow         : Open-shell DLPNO-CCSD energy and density      
  Barbara Sandhoefer     : DKH picture change effects                    
  Yorick L. A. Schmerwitz: GMF and freeze-and-release deltaSCF, NEB S-IDPP initial path                    
  Kantharuban Sivalingam : CASSCF convergence/infrastructure, NEVPT2, NEVPT3, NEVPT4(SD), FIC-MRCI and CEPA variants
  Bernardo de Souza      : ESD, SOC TD-DFT                               
  Georgi L. Stoychev     : AutoAux, RI-MP2 NMR, DLPNO-MP2 response, X2C  
  Van Anh Tran           : RI-MP2 g-tensors                              
  Willem Van den Heuvel  : Paramagnetic NMR                              
  Zikuan Wang            : NOTCH, Electric field optimization            
  Frank Wennmohs         : Technical directorship and infrastructure     
  Hang Xu                : AUTO-CI-Response properties                   
                                                                         
[FACCTs GmbH]                                                            
  Markus Bursch, Nicolas Foglia, Miquel Garcia-Rates, Ingolf Harden, Hagen Neugebauer, Anastasios Papadopoulos, 
  Christoph Riplinger, Bernardo de Souza, Georgi L. Stoychev                                                    
                                                                 
  APM, various basis sets, CI-OPT, improved COSX, DLPNO-Multilevel,           
  DOCKER, DRACO, updates on ESD, Fragmentator, GOAT, IRC, LR-CPCM, L-BFGS, MBIS, meta-GGA TD-DFT gradient, ML-optimized integration grids, 
  MM, NACMEs, nearIR, NEB, NEB-TS, NL-DFT gradient (VV10), 2- and 3-layer-ONIOM, interface openCOSMO-RS, QMMM,   
  Crystal-QMMM, RESP, rigid body optimization, SF, symmetry and pop. for TD-DFT, various functionals, SOLVATOR                                   
                                                                         
[Other institutions]                                                     
  V. Asgeirsson          : NEB                                           
  Christoph Bannwarth    : sTDA-DFT, sTD-DFT, PBEh-3c, B97-3c, D3        
  Giovanni Bistoni       : ETS/NOCV, ADLD/ADEX, COVALED                  
  Martin Brehm           : Molecular dynamics                            
  Ronald Cardenas        : ETS/NOCV                                      
  Martina Colucci        : COVALED                                       
  Sebastian Ehlert       : rSCAN, r2SCAN, r2SCAN-3c, D4, dhf basis sets  
  Marvin Friede          : D4 for Fr, Ra, Ac-Lr                          
  Lars Goerigk           : TD-DFT with DH, B97 family of functionals     
  Stefan Grimme          : VdW corrections, initial TS optimization, DFT functionals, gCP, sTDA/sTD-DF 
  Waldemar Hujo          : DFT-NL                                        
  H. Jonsson             : NEB                                           
  Holger Kruse           : gCP                                           
  Marcel Mueller         : wB97X-3c, vDZP basis set                      
  Hagen Neugebauer       : wr2SCAN, Native XTB                           
  Gianluca Regni         : ADLD/ADEX                                     
  Tobias Risthaus        : pre 6.0 range-separated hybrid DFT and stability analysis
  Lukas Wittmann         : regularized MP2, r2SCAN double-hybrids, wr2SCAN        
                                                                         
We gratefully acknowledge several colleagues who have allowed us to      
interface, adapt or use parts of their codes:                            
  Ed Valeev, F. Pavosevic, A. Kumar             : LibInt (2-el integral package), F12 methods 
  Garnet Chan, S. Sharma, J. Yang, R. Olivares  : DMRG                   
  Ulf Ekstrom                                   : XCFun DFT Library      
  Mihaly Kallay                                 : mrcc  (arbitrary order and MRCC methods)
  Frank Weinhold                                : gennbo (NPA and NBO analysis)           
  Simon Mueller                                 : openCOSMO-RS                            
  Christopher J. Cramer and Donald G. Truhlar   : smd solvation model                     
  S Lehtola, MJT Oliveira, MAL Marques          : LibXC Library                           
  Liviu Ungur et al                             : ANISO software                          


 Your calculation uses the libint2 library for the computation of 2-el integrals
 For citations please refer to: http://libint.valeyev.net

 Your ORCA version has been built with support for libXC version: 7.0.0
 For citations please refer to: https://libxc.gitlab.io

 This ORCA versions uses:
   CBLAS   interface :  Fast vector & matrix operations
   LAPACKE interface :  Fast linear algebra routines
   SCALAPACK package :  Parallel linear algebra routines
   Shared memory     :  Shared parallel matrices
   BLAS/LAPACK       :  OpenBLAS 0.3.29  USE64BITINT DYNAMIC_ARCH NO_AFFINITY Cooperlake SINGLE_THREADED
        Core in use  :  Cooperlake
   Copyright (c) 2011-2014, The OpenBLAS Project


  ***********************************
  * Starting time: Fri Jul 18 12:40:55 2025
  * Host name:     abcsim-001
  * Process ID:    945062
  * Working dir.:  /home/vhpaschoal/orca_test/Uracil/Agua/Uracil_1_2
  ***********************************

Warning: RI is on but no J-basis has been assigned. Assigning Def2/J (nothing to worry about!)
================================================================================

----- Orbital basis set information -----
Your calculation utilizes the basis: def2-SVP
   F. Weigend and R. Ahlrichs, Phys. Chem. Chem. Phys. 7, 3297 (2005).

----- AuxJ basis set information -----
Your calculation utilizes the auxiliary basis: def2/J
   H-Rn: F. Weigend, Phys. Chem. Chem. Phys. 8, 1057 (2006).
   Fr-Lr: K. Eichkorn, F. Weigend, O. Treutler, R. Ahlrichs; Theor. Chem. Acc. 97, 119 (1997).

================================================================================
                                        WARNINGS
                       Please study these warnings very carefully!
================================================================================


WARNING: Geometry Optimization
  ===> : Switching off AutoStart
         For restart on a previous wavefunction, please use MOREAD

================================================================================
                                       INPUT FILE
================================================================================
NAME = Uracil_1.inp
|  1> !B3LYP def2-SVP OPT FREQ CPCM(water) pal16
|  2> * xyz 1 1
|  3>    C        1.42595        0.54579       -0.06621
|  4>    C        1.23202       -0.75083        0.19371
|  5>    N       -0.03350       -1.26223        0.32139
|  6>    C       -1.16035       -0.50853        0.20103
|  7>    N       -1.03684        0.83831       -0.05387
|  8>    C        0.22580        1.37960       -0.20389
|  9>    O       -2.30847       -0.88269        0.29613
| 10>    O        0.22186        2.56700       -0.44722
| 11>    H        2.05878       -1.44956        0.31201
| 12>    H       -0.16666       -2.25433        0.51397
| 13>    H       -1.62671        1.09786       -0.84212
| 14>    H        2.39975        1.00504       -0.18005
| 15>    H       -1.54849        1.36077        0.65492
| 16> **                         ****END OF INPUT****
================================================================================

                       *****************************
                       * Geometry Optimization Run *
                       *****************************

Geometry optimization settings:
Update method            Update   .... BFGS
Choice of coordinates    CoordSys .... (2022) Redundant Internals
Initial Hessian          InHess   .... Almloef's Model
Max. no of cycles        MaxIter  .... 50

Convergence Tolerances:
Energy Change            TolE     ....  5.0000e-06 Eh
Max. Gradient            TolMAXG  ....  3.0000e-04 Eh/bohr
RMS Gradient             TolRMSG  ....  1.0000e-04 Eh/bohr
Max. Displacement        TolMAXD  ....  4.0000e-03 bohr
RMS Displacement         TolRMSD  ....  2.0000e-03 bohr
Strict Convergence                .... False

------------------------------------------------------------------------------
                        ORCA OPTIMIZATION COORDINATE SETUP
------------------------------------------------------------------------------

The optimization will be done in redundant internal coordinates (2022)
Making redundant internal coordinates   ...  (2022 redundants) done
Evaluating the initial hessian          ...  (Almloef) done
Evaluating the coordinates              ...  done
Calculating the B-matrix                .... done
Calculating the G-matrix                .... done
The number of degrees of freedom        ....   60

    -----------------------------------------------------------------
                    Redundant Internal Coordinates


    -----------------------------------------------------------------
         Definition                    Initial Value    Approx d2E/dq
    -----------------------------------------------------------------
      1. B(C   1,C   0)                  1.3366         0.760326   
      2. B(N   2,C   1)                  1.3709         0.600267   
      3. B(C   3,N   2)                  1.3610         0.622488   
      4. B(N   4,C   3)                  1.3763         0.588478   
      5. B(C   5,N   4)                  1.3819         0.576412   
      6. B(C   5,C   0)                  1.4678         0.469407   
      7. B(O   6,C   3)                  1.2113         1.078943   
      8. B(O   7,C   5)                  1.2121         1.075800   
      9. B(H   8,C   1)                  1.0889         0.361529   
     10. B(H   9,N   2)                  1.0194         0.418093   
     11. B(H  10,N   4)                  1.0182         0.419928   
     12. B(H  11,C   0)                  1.0827         0.369940   
     13. B(H  12,N   4)                  1.0184         0.419563   
     14. A(C   5,C   0,H  11)          118.9859         0.338318   
     15. A(C   1,C   0,H  11)          124.2265         0.367073   
     16. A(C   1,C   0,C   5)          116.7875         0.428318   
     17. A(N   2,C   1,H   8)          116.8333         0.349061   
     18. A(C   0,C   1,H   8)          122.2395         0.365630   
     19. A(C   0,C   1,N   2)          120.9271         0.444787   
     20. A(C   3,N   2,H   9)          116.5850         0.356822   
     21. A(C   1,N   2,C   3)          123.3320         0.426241   
     22. A(C   1,N   2,H   9)          120.0828         0.354628   
     23. A(N   2,C   3,O   6)          127.3565         0.474104   
     24. A(N   2,C   3,N   4)          118.9473         0.424730   
     25. A(N   4,C   3,O   6)          113.6960         0.469237   
     26. A(C   3,N   4,H  10)          109.9291         0.353700   
     27. A(C   5,N   4,H  12)          109.4902         0.352410   
     28. A(C   3,N   4,C   5)          119.0388         0.418937   
     29. A(C   3,N   4,H  12)          109.1506         0.353648   
     30. A(C   5,N   4,H  10)          110.2087         0.352462   
     31. A(H  10,N   4,H  12)           96.7177         0.300328   
     32. A(C   0,C   5,N   4)          120.9549         0.405080   
     33. A(N   4,C   5,O   7)          113.7368         0.467209   
     34. A(C   0,C   5,O   7)          125.3081         0.453028   
     35. D(H   8,C   1,C   0,C   5)    179.9356         0.041338   
     36. D(N   2,C   1,C   0,C   5)      0.0611         0.041338   
     37. D(H   8,C   1,C   0,H  11)      0.0391         0.041338   
     38. D(N   2,C   1,C   0,H  11)   -179.8353         0.041338   
     39. D(C   3,N   2,C   1,H   8)    179.8970         0.029036   
     40. D(H   9,N   2,C   1,C   0)    179.6194         0.029036   
     41. D(C   3,N   2,C   1,C   0)     -0.2220         0.029036   
     42. D(H   9,N   2,C   1,H   8)     -0.2616         0.029036   
     43. D(O   6,C   3,N   2,H   9)     -0.0423         0.031397   
     44. D(O   6,C   3,N   2,C   1)    179.8042         0.031397   
     45. D(N   4,C   3,N   2,H   9)    179.7510         0.031397   
     46. D(N   4,C   3,N   2,C   1)     -0.4025         0.031397   
     47. D(H  10,N   4,C   3,N   2)    129.5953         0.030247   
     48. D(C   5,N   4,C   3,O   6)   -179.0154         0.030247   
     49. D(C   5,N   4,C   3,N   2)      1.1640         0.030247   
     50. D(H  12,N   4,C   3,N   2)   -125.4754         0.030247   
     51. D(H  10,N   4,C   3,O   6)    -50.5842         0.030247   
     52. D(O   7,C   5,N   4,H  10)     50.5292         0.028935   
     53. D(O   7,C   5,N   4,C   3)    178.8315         0.028935   
     54. D(C   0,C   5,N   4,H  12)    125.1396         0.028935   
     55. D(C   0,C   5,N   4,H  10)   -129.6416         0.028935   
     56. D(C   0,C   5,N   4,C   3)     -1.3393         0.028935   
     57. D(O   7,C   5,C   0,H  11)      0.4329         0.015004   
     58. D(O   7,C   5,C   0,C   1)   -179.4692         0.015004   
     59. D(N   4,C   5,C   0,H  11)   -179.3755         0.015004   
     60. D(N   4,C   5,C   0,C   1)      0.7224         0.015004   
    -----------------------------------------------------------------

Number of atoms                         .... 13
Number of degrees of freedom            .... 60


         *************************************************************
         *                GEOMETRY OPTIMIZATION CYCLE   1            *
         *************************************************************
---------------------------------
CARTESIAN COORDINATES (ANGSTROEM)
---------------------------------
  C      1.425950    0.545790   -0.066210
  C      1.232020   -0.750830    0.193710
  N     -0.033500   -1.262230    0.321390
  C     -1.160350   -0.508530    0.201030
  N     -1.036840    0.838310   -0.053870
  C      0.225800    1.379600   -0.203890
  O     -2.308470   -0.882690    0.296130
  O      0.221860    2.567000   -0.447220
  H      2.058780   -1.449560    0.312010
  H     -0.166660   -2.254330    0.513970
  H     -1.626710    1.097860   -0.842120
  H      2.399750    1.005040   -0.180050
  H     -1.548490    1.360770    0.654920

----------------------------
CARTESIAN COORDINATES (A.U.)
----------------------------
  NO LB      ZA    FRAG     MASS         X           Y           Z
   0 C     6.0000    0    12.011    2.694655    1.031394   -0.125119
   1 C     6.0000    0    12.011    2.328180   -1.418863    0.366059
   2 N     7.0000    0    14.007   -0.063306   -2.385269    0.607339
   3 C     6.0000    0    12.011   -2.192744   -0.960982    0.379892
   4 N     7.0000    0    14.007   -1.959344    1.584176   -0.101800
   5 C     6.0000    0    12.011    0.426700    2.607066   -0.385296
   6 O     8.0000    0    15.999   -4.362376   -1.668042    0.559605
   7 O     8.0000    0    15.999    0.419255    4.850927   -0.845123
   8 H     1.0000    0     1.008    3.890530   -2.739271    0.589613
   9 H     1.0000    0     1.008   -0.314942   -4.260066    0.971263
  10 H     1.0000    0     1.008   -3.074036    2.074655   -1.591376
  11 H     1.0000    0     1.008    4.534870    1.899250   -0.340245
  12 H     1.0000    0     1.008   -2.926222    2.571483    1.237619

--------------------------------
INTERNAL COORDINATES (ANGSTROEM)
--------------------------------
 C      0   0   0     0.000000000000     0.00000000     0.00000000
 C      1   0   0     1.336559267560     0.00000000     0.00000000
 N      2   1   0     1.370902262308   120.92707169     0.00000000
 C      3   2   1     1.361007399723   123.33197900   359.77800336
 N      4   3   2     1.376301825800   118.94725047   359.59750488
 C      5   4   3     1.381940893852   119.03884217     1.16397526
 O      4   3   2     1.211288260490   127.35650071   179.80419671
 O      6   5   4     1.212082411596   113.73677265   178.83149013
 H      2   1   3     1.088921760504   122.23953531   179.87444522
 H      3   2   1     1.019353251822   120.08280805   179.61937294
 H      5   4   3     1.018160538373   109.92912973   129.59525462
 H      1   2   3     1.082661788418   124.22647836   180.16467139
 H      5   4   3     1.018397485366   109.15060659   234.52457581

---------------------------
INTERNAL COORDINATES (A.U.)
---------------------------
 C      0   0   0     0.000000000000     0.00000000     0.00000000
 C      1   0   0     2.525730977442     0.00000000     0.00000000
 N      2   1   0     2.590629832134   120.92707169     0.00000000
 C      3   2   1     2.571931251716   123.33197900   359.77800336
 N      4   3   2     2.600833528378   118.94725047   359.59750488
 C      5   4   3     2.611489822646   119.03884217     1.16397526
 O      4   3   2     2.289003081559   127.35650071   179.80419671
 O      6   5   4     2.290503809659   113.73677265   178.83149013
 H      2   1   3     2.057763908621   122.23953531   179.87444522
 H      3   2   1     1.926298479666   120.08280805   179.61937294
 H      5   4   3     1.924044577891   109.92912973   129.59525462
 H      1   2   3     2.045934275771   124.22647836   180.16467139
 H      5   4   3     1.924492342816   109.15060659   234.52457581

---------------------
BASIS SET INFORMATION
---------------------
There are 4 groups of distinct atoms

 Group   1 Type C   : 7s4p1d contracted to 3s2p1d pattern {511/31/1}
 Group   2 Type N   : 7s4p1d contracted to 3s2p1d pattern {511/31/1}
 Group   3 Type O   : 7s4p1d contracted to 3s2p1d pattern {511/31/1}
 Group   4 Type H   : 4s1p contracted to 2s1p pattern {31/1}

Atom   0C    basis set group =>   1
Atom   1C    basis set group =>   1
Atom   2N    basis set group =>   2
Atom   3C    basis set group =>   1
Atom   4N    basis set group =>   2
Atom   5C    basis set group =>   1
Atom   6O    basis set group =>   3
Atom   7O    basis set group =>   3
Atom   8H    basis set group =>   4
Atom   9H    basis set group =>   4
Atom  10H    basis set group =>   4
Atom  11H    basis set group =>   4
Atom  12H    basis set group =>   4
---------------------------------
AUXILIARY/J BASIS SET INFORMATION
---------------------------------
There are 4 groups of distinct atoms

 Group   1 Type C   : 12s5p4d2f1g contracted to 6s4p3d1f1g pattern {711111/2111/211/2/1}
 Group   2 Type N   : 12s5p4d2f1g contracted to 6s4p3d1f1g pattern {711111/2111/211/2/1}
 Group   3 Type O   : 12s5p4d2f1g contracted to 6s4p3d1f1g pattern {711111/2111/211/2/1}
 Group   4 Type H   : 5s2p1d contracted to 3s1p1d pattern {311/2/1}

Atom   0C    basis set group =>   1
Atom   1C    basis set group =>   1
Atom   2N    basis set group =>   2
Atom   3C    basis set group =>   1
Atom   4N    basis set group =>   2
Atom   5C    basis set group =>   1
Atom   6O    basis set group =>   3
Atom   7O    basis set group =>   3
Atom   8H    basis set group =>   4
Atom   9H    basis set group =>   4
Atom  10H    basis set group =>   4
Atom  11H    basis set group =>   4
Atom  12H    basis set group =>   4


           ************************************************************
           *        Program running with 16 parallel MPI-processes    *
           *              working on a common directory               *
           ************************************************************
------------------------------------------------------------------------------
                             ORCA STARTUP CALCULATIONS
                           -- RI-GTO INTEGRALS CHOSEN --
------------------------------------------------------------------------------
------------------------------------------------------------------------------
                   ___                                                        
                  /   \      - P O W E R E D   B Y -                         
                 /     \                                                     
                 |  |  |   _    _      __       _____    __    __             
                 |  |  |  | |  | |    /  \     |  _  \  |  |  /  |          
                  \  \/   | |  | |   /    \    | | | |  |  | /  /          
                 / \  \   | |__| |  /  /\  \   | |_| |  |  |/  /          
                |  |  |   |  __  | /  /__\  \  |    /   |      \           
                |  |  |   | |  | | |   __   |  |    \   |  |\   \          
                \     /   | |  | | |  |  |  |  | |\  \  |  | \   \       
                 \___/    |_|  |_| |__|  |__|  |_| \__\ |__|  \__/        
                                                                              
                      - O R C A' S   B I G   F R I E N D -                    
                                      &                                       
                       - I N T E G R A L  F E E D E R -                       
                                                                              
 v1 FN, 2020, v2 2021, v3 2022-2024                                           
------------------------------------------------------------------------------


----------------------
SHARK INTEGRAL PACKAGE
----------------------

Number of atoms                             ...     13
Number of basis functions                   ...    137
Number of shells                            ...     63
Maximum angular momentum                    ...      2
Integral batch strategy                     ... SHARK/LIBINT Hybrid
RI-J (if used) integral strategy            ... SPLIT-RIJ (Revised 2003 algorithm where possible)
Printlevel                                  ...      1
Contraction scheme used                     ... SEGMENTED contraction
Prescreening option                         ... SCHWARTZ
   Thresh                                   ... 2.500e-11
   Tcut                                     ... 2.500e-12
   Tpresel                                  ... 2.500e-12 
Coulomb Range Separation                    ... NOT USED
Exchange Range Separation                   ... NOT USED
Multipole approximations                    ... NOT USED
Finite Nucleus Model                        ... NOT USED
CABS basis                                  ... NOT available
Auxiliary Coulomb fitting basis             ... AVAILABLE
   # of basis functions in Aux-J            ...    447
   # of shells in Aux-J                     ...    145
   Maximum angular momentum in Aux-J        ...      4
Auxiliary J/K fitting basis                 ... NOT available
Auxiliary Correlation fitting basis         ... NOT available
Auxiliary 'external' fitting basis          ... NOT available

Checking pre-screening integrals            ... done (  0.0 sec) Dimension = 63
   => SHARK Basis and OBASIS are compatible. Storing Pre-screening
Shell pair information
Shell pair cut-off parameter TPreSel        ...   2.5e-12
Total number of shell pairs                 ...      2016
Shell pairs after pre-screening             ...      1924
Total number of primitive shell pairs       ...      7500
Primitive shell pairs kept                  ...      5401
          la=0 lb=0:    560 shell pairs
          la=1 lb=0:    687 shell pairs
          la=1 lb=1:    225 shell pairs
          la=2 lb=0:    255 shell pairs
          la=2 lb=1:    162 shell pairs
          la=2 lb=2:     35 shell pairs

Checking whether 4 symmetric matrices of dimension 137 fit in memory
:Max Core in MB      =   4096.00
 MB in use           =      5.84
 MB left             =   4090.16
 MB needed           =      0.29
 Data fit in memory  = YES
Calculating RI/J V-Matrix + Cholesky decomp.... done (  0.0 sec)
Calculating Nuclear repulsion               ... done (  0.0 sec) ENN=    374.918111247347 Eh

Diagonalization of the overlap matrix:
Smallest eigenvalue                        ... 1.229e-03
Time for diagonalization                   ...    0.001 sec
Threshold for overlap eigenvalues          ... 1.000e-07
Number of eigenvalues below threshold      ... 0
Time for construction of square roots      ...    0.000 sec
Total time needed                          ...    0.002 sec

-------------------
DFT GRID GENERATION
-------------------

General Integration Accuracy     IntAcc      ... 4.388
Radial Grid Type                 RadialGrid  ... OptM3 with GC (2021)
Angular Grid (max. ang.)         AngularGrid ... 4 (Lebedev-302)
Angular grid pruning method      GridPruning ... 4 (adaptive)
Weight generation scheme         WeightScheme... mBecke (2022)
Basis function cutoff            BFCut       ... 1.0000e-11
Integration weight cutoff        WCut        ... 1.0000e-14
Partially contracted basis set               ... off
Rotationally invariant grid construction     ... off
Angular grids for H and He will be reduced by one unit

Total number of grid points                  ...    64375
Total number of batches                      ...     1013
Average number of points per batch           ...       63
Average number of grid points per atom       ...     4952

--------------------
COSX GRID GENERATION
--------------------

GRIDX 1
-------
General Integration Accuracy     IntAcc      ... 3.816
Radial Grid Type                 RadialGrid  ... OptM3 with GC (2021)
Angular Grid (max. ang.)         AngularGrid ... 1 (Lebedev-50)
Angular grid pruning method      GridPruning ... 4 (adaptive)
Weight generation scheme         WeightScheme... mBecke (2022)
Basis function cutoff            BFCut       ... 1.0000e-11
Integration weight cutoff        WCut        ... 1.0000e-14
Partially contracted basis set               ... on
Rotationally invariant grid construction     ... off
Angular grids for H and He will be reduced by one unit

Total number of grid points                  ...     8218
Total number of batches                      ...       72
Average number of points per batch           ...      114
Average number of grid points per atom       ...      632
UseSFitting                                  ... on

GRIDX 2
-------
General Integration Accuracy     IntAcc      ... 4.020
Radial Grid Type                 RadialGrid  ... OptM3 with GC (2021)
Angular Grid (max. ang.)         AngularGrid ... 2 (Lebedev-110)
Angular grid pruning method      GridPruning ... 4 (adaptive)
Weight generation scheme         WeightScheme... mBecke (2022)
Basis function cutoff            BFCut       ... 1.0000e-11
Integration weight cutoff        WCut        ... 1.0000e-14
Partially contracted basis set               ... on
Rotationally invariant grid construction     ... off
Angular grids for H and He will be reduced by one unit

Total number of grid points                  ...    18343
Total number of batches                      ...      149
Average number of points per batch           ...      123
Average number of grid points per atom       ...     1411
UseSFitting                                  ... on

GRIDX 3
-------
General Integration Accuracy     IntAcc      ... 4.338
Radial Grid Type                 RadialGrid  ... OptM3 with GC (2021)
Angular Grid (max. ang.)         AngularGrid ... 3 (Lebedev-194)
Angular grid pruning method      GridPruning ... 4 (adaptive)
Weight generation scheme         WeightScheme... mBecke (2022)
Basis function cutoff            BFCut       ... 1.0000e-11
Integration weight cutoff        WCut        ... 1.0000e-14
Partially contracted basis set               ... on
Rotationally invariant grid construction     ... off
Angular grids for H and He will be reduced by one unit

Total number of grid points                  ...    40385
Total number of batches                      ...      322
Average number of points per batch           ...      125
Average number of grid points per atom       ...     3107
UseSFitting                                  ... on
Grids setup in   0.3 sec
Initializing property integral containers    ... done (  0.0 sec)

SHARK setup successfully completed in   0.3 seconds

Maximum memory used throughout the entire STARTUP-calculation: 17.1 MB


           ************************************************************
           *        Program running with 16 parallel MPI-processes    *
           *              working on a common directory               *
           ************************************************************
-------------------------------------------------------------------------------
                                 ORCA GUESS
                   Start orbitals & Density for SCF / CASSCF
-------------------------------------------------------------------------------

------------
SCF SETTINGS
------------
Hamiltonian:
 Density Functional     Method          .... DFT(GTOs)
 Exchange Functional    Exchange        .... B88
   X-Alpha parameter    XAlpha          ....  0.666667
   Becke's b parameter  XBeta           ....  0.004200
 Correlation Functional Correlation     .... LYP
 LDA part of GGA corr.  LDAOpt          .... VWN-5
 Gradients option       PostSCFGGA      .... off
 Hybrid DFT is turned on
   Fraction HF Exchange ScalHFX         ....  0.200000
   Scaling of DF-GGA-X  ScalDFX         ....  0.720000
   Scaling of DF-GGA-C  ScalDFC         ....  0.810000
   Scaling of DF-LDA-C  ScalLDAC        ....  1.000000
   Perturbative correction              ....  0.000000
   NL short-range parameter             ....  4.800000
 RI-approximation to the Coulomb term is turned on
   Number of AuxJ basis functions       .... 447
   RIJ-COSX (HFX calculated with COS-X)).... on


General Settings:
 Integral files         IntName         .... Uracil_1
 Hartree-Fock type      HFTyp           .... RHF
 Total Charge           Charge          ....    1
 Multiplicity           Mult            ....    1
 Number of Electrons    NEL             ....   58
 Basis Dimension        Dim             ....  137
 Nuclear Repulsion      ENuc            ....    374.9181112473 Eh

Convergence Acceleration:
 AO-DIIS                CNVDIIS         .... on
   Start iteration      DIISMaxIt       ....    12
   Startup error        DIISStart       ....  0.200000
   # of expansion vecs  DIISMaxEq       ....     5
   Bias factor          DIISBfac        ....   1.050
   Max. coefficient     DIISMaxC        ....  10.000
 MO-DIIS                CNVKDIIS        .... off
 Trust-Rad. Augm. Hess. CNVTRAH         .... auto
   Auto Start mean grad. ratio tolernc. ....  1.125000
   Auto Start start iteration           ....    50
   Auto Start num. interpolation iter.  ....    10
   Max. Number of Micro iterations      ....    24
   Max. Number of Macro iterations      .... Maxiter - #DIIS iter
   Number of Davidson start vectors     ....     2
   Converg. threshold    (grad. norm)   ....   1.000e-05
   Grad. Scal. Fac. for Micro threshold ....   0.100
   Minimum threshold for Micro iter.    ....   1.000e-02
   NR start threshold (gradient norm)   ....   1.000e-04
   Initial trust radius                 ....   0.400
   Minimum AH scaling param. (alpha)    ....   1.000
   Maximum AH scaling param. (alpha)    .... 1000.000
   Quad. conv. algorithm                .... NR
   White noise on init. David. guess    .... on
   Maximum white noise                  ....   0.010
   Pseudo random numbers                .... off
   Inactive MOs                         .... canonical
   Orbital update algorithm             .... Taylor
   Preconditioner                       .... Diag
   Full preconditioner red. dimension   ....   250
 SOSCF                 CNVSOSCF           .... on
   Start iteration     SOSCFMaxIt         ....   150
   Startup grad/error  SOSCFStart         ....  0.003300
   Hessian update      SOSCFHessUp        .... L-BFGS
   Autom. constraints  SOSCFAutoConstrain .... off
 Level Shifting         CNVShift        .... on
   Level shift para.    LevelShift      ....    0.2500
   Turn off err/grad.   ShiftErr        ....    0.0010
 Zerner damping         CNVZerner       .... off
 Static damping         CNVDamp         .... on
   Fraction old density DampFac         ....    0.7000
   Max. Damping (<1)    DampMax         ....    0.9800
   Min. Damping (>=0)   DampMin         ....    0.0000
   Turn off err/grad.   DampErr         ....    0.1000

SCF Procedure:
 Maximum # iterations   MaxIter         ....   125
 SCF integral mode      SCFMode         .... Direct
   Integral package                     .... SHARK and LIBINT hybrid scheme
 Reset frequency        DirectResetFreq ....    20
 Integral Threshold     Thresh          ....  2.500e-11 Eh
 Primitive CutOff       TCut            ....  2.500e-12 Eh

Convergence Tolerance:
 Convergence Check Mode ConvCheckMode   .... Total+1el-Energy
 Convergence forced     ConvForced      .... 0
 Energy Change          TolE            ....  1.000e-08 Eh
 1-El. energy change                    ....  1.000e-05 Eh
 Orbital Gradient       TolG            ....  1.000e-05
 Orbital Rotation angle TolX            ....  1.000e-05
 DIIS Error             TolErr          ....  5.000e-07

------------------------------
INITIAL GUESS: MODEL POTENTIAL
------------------------------
Loading Hartree-Fock densities                     ... done
Calculating cut-offs                               ... done
Initializing the effective Hamiltonian             ... done
Setting up the integral package (SHARK)            ... done
Starting the Coulomb interaction                   ... done (   0.0 sec)
Making the grid                                    ... done (   0.0 sec)
Mapping shells                                     ... done
Starting the XC term evaluation                    ... done (   0.0 sec)
  promolecular density results
     # of electrons  =     58.997438182
     EX              =    -51.724155088
     EC              =     -2.063993356
     EX+EC           =    -53.788148444
Transforming the Hamiltonian                       ... done (   0.0 sec)
Diagonalizing the Hamiltonian                      ... done (   0.0 sec)
Back transforming the eigenvectors                 ... done (   0.0 sec)
Now organizing SCF variables                       ... done
                      ------------------
                      INITIAL GUESS DONE (   0.1 sec)
                      ------------------
             **** ENERGY FILE WAS UPDATED (Uracil_1.en.tmp) ****
Finished Guess after   0.4 sec
Maximum memory used throughout the entire GUESS-calculation: 8.3 MB


           ************************************************************
           *        Program running with 16 parallel MPI-processes    *
           *              working on a common directory               *
           ************************************************************

-------------------------------------------------------------------------------------------
                                      ORCA LEAN-SCF
                              memory conserving SCF solver
-------------------------------------------------------------------------------------------

--------------------
CPCM SOLVATION MODEL
--------------------
CPCM parameters:
  Epsilon                                         ...      80.1510
  Refrac                                          ...       1.3328
  Rsolv                                           ...       1.3000
  Surface type                                    ... GAUSSIAN VDW
  Discretization scheme                           ... Constant charge density
    Threshold for H atoms                         ...       5.0000 (charges/Ang^2)
    Threshold for non-H atoms                     ...       5.0000 (charges/Ang^2)
  Epsilon function type                           ...         CPCM
Solvent:                                          ... WATER
Radii:
  Scheme                                          ... Element-dependent radii
  Radius for C  used is    3.8550 Bohr (=   2.0400 Ang.)
  Radius for N  used is    3.5149 Bohr (=   1.8600 Ang.)
  Radius for O  used is    3.4469 Bohr (=   1.8240 Ang.)
  Radius for H  used is    2.4944 Bohr (=   1.3200 Ang.)
Calculating surface                               ...        done! (  0.0s)
Cavity surface points                             ...         1230
Cavity Volume                                     ...     846.1026
Cavity Surface-area                               ...     497.9777
Calculating surface distance matrix               ...        done! (  0.0s)
Performing Cholesky decomposition & store         ...        done! (  0.0s)
Overall time for CPCM initialization              ...                 0.0s

----------------------------------------D-I-I-S--------------------------------------------
Iteration    Energy (Eh)           Delta-E    RMSDP     MaxDP     DIISErr   Damp  Time(sec)
-------------------------------------------------------------------------------------------
               ***  Starting incremental Fock matrix formation  ***
    1    -414.4229053663717082     0.00e+00  2.19e-02  1.08e-01  2.68e-01  0.700   0.1
    2    -414.5509408612671791    -1.28e-01  1.30e-02  6.81e-02  9.87e-02  0.700   0.1
                               ***Turning on AO-DIIS***
    3    -414.5898520747882117    -3.89e-02  4.50e-03  1.97e-02  3.48e-02  0.700   0.1
    4    -414.6167391894554726    -2.69e-02  7.45e-03  2.81e-02  1.77e-02  0.000   0.1
    5    -414.6792382900698044    -6.25e-02  1.63e-03  8.04e-03  7.29e-03  0.000   0.1
                              *** Initializing SOSCF ***
---------------------------------------S-O-S-C-F--------------------------------------
Iteration    Energy (Eh)           Delta-E    RMSDP     MaxDP     MaxGrad    Time(sec)
--------------------------------------------------------------------------------------
    6    -414.6796345955459060    -3.96e-04  4.43e-04  1.73e-03  1.59e-03     0.1
               *** Restarting incremental Fock matrix formation ***
    7    -414.6796518854669671    -1.73e-05  3.26e-04  1.57e-03  4.48e-04     0.1
    8    -414.6796534940584138    -1.61e-06  1.61e-04  9.98e-04  4.95e-04     0.1
    9    -414.6796566080034268    -3.11e-06  1.00e-04  4.38e-04  1.60e-04     0.1
   10    -414.6796567768462296    -1.69e-07  4.30e-05  2.64e-04  1.13e-04     0.1
   11    -414.6796571989161180    -4.22e-07  2.69e-05  1.63e-04  3.47e-05     0.1
   12    -414.6796571870576713     1.19e-08  1.53e-05  1.14e-04  3.92e-05     0.1
   13    -414.6796572148966220    -2.78e-08  6.24e-06  5.04e-05  9.51e-06     0.1
   14    -414.6796572145121331     3.84e-10  3.45e-06  2.65e-05  8.28e-06     0.1
                 **** Energy Check signals convergence ****

               *****************************************************
               *                     SUCCESS                       *
               *           SCF CONVERGED AFTER  14 CYCLES          *
               *****************************************************

Recomputing exchange energy using gridx3       ... done (    0.153 sec)
Old exchange energy                            :    -10.392311284 Eh
New exchange energy                            :    -10.392319310 Eh
Exchange energy change after final integration :     -0.000008026 Eh
Total energy after final integration           :   -414.679665244 Eh
             **** ENERGY FILE WAS UPDATED (Uracil_1.en.tmp) ****

----------------
TOTAL SCF ENERGY
----------------

Total Energy       :       -414.67966524370195 Eh          -11284.00736 eV

Components:
Nuclear Repulsion  :        374.91811124734676 Eh           10202.04047 eV
Electronic Energy  :       -789.47112736771851 Eh          -21482.60153 eV
One Electron Energy:      -1293.74652001075947 Eh          -35204.63258 eV
Two Electron Energy:        504.27539264304102 Eh           13722.03105 eV
CPCM Dielectric    :         -0.12664109745472 Eh              -3.44608 eV

Virial components:
Potential Energy   :       -826.22087177133176 Eh          -22482.61291 eV
Kinetic Energy     :        411.54120652762987 Eh           11198.60556 eV
Virial Ratio       :          2.00762611049949

DFT components:
N(Alpha)           :       29.000026452459 electrons
N(Beta)            :       29.000026452459 electrons
N(Total)           :       58.000052904918 electrons
E(X)               :      -41.366562344990 Eh       
E(C)               :       -2.393244374892 Eh       
E(XC)              :      -43.759806719882 Eh       

CPCM Solvation Model Properties:
Surface-charge          :         -1.00664816256275
Corrected charge        :         -1.00000000000000
Outlying charge corr.   :          0.00000354302130 Eh               0.00010 eV
Free-energy (cav+disp)  :  This term is not implemented in the current solvation scheme

---------------
SCF CONVERGENCE
---------------

  Last Energy change         ...   -3.8449e-10  Tolerance :   1.0000e-08
  Last MAX-Density change    ...    2.6549e-05  Tolerance :   1.0000e-07
  Last RMS-Density change    ...    3.4488e-06  Tolerance :   5.0000e-09
  Last DIIS Error            ...    1.5869e-03  Tolerance :   5.0000e-07
  Last Orbital Gradient      ...    8.2834e-06  Tolerance :   1.0000e-05
  Last Orbital Rotation      ...    8.6563e-06  Tolerance :   1.0000e-05


----------------
ORBITAL ENERGIES
----------------

  NO   OCC          E(Eh)            E(eV) 
   0   2.0000     -19.167600      -521.5769 
   1   2.0000     -19.164452      -521.4912 
   2   2.0000     -14.494412      -394.4130 
   3   2.0000     -14.428915      -392.6307 
   4   2.0000     -10.386495      -282.6309 
   5   2.0000     -10.350691      -281.6566 
   6   2.0000     -10.287452      -279.9358 
   7   2.0000     -10.226824      -278.2860 
   8   2.0000      -1.157832       -31.5062 
   9   2.0000      -1.095688       -29.8152 
  10   2.0000      -1.026310       -27.9273 
  11   2.0000      -1.003468       -27.3058 
  12   2.0000      -0.824302       -22.4304 
  13   2.0000      -0.748859       -20.3775 
  14   2.0000      -0.725418       -19.7396 
  15   2.0000      -0.650269       -17.6947 
  16   2.0000      -0.648396       -17.6438 
  17   2.0000      -0.609449       -16.5839 
  18   2.0000      -0.572026       -15.5656 
  19   2.0000      -0.501953       -13.6588 
  20   2.0000      -0.488831       -13.3018 
  21   2.0000      -0.476466       -12.9653 
  22   2.0000      -0.461411       -12.5556 
  23   2.0000      -0.454419       -12.3654 
  24   2.0000      -0.439857       -11.9691 
  25   2.0000      -0.381395       -10.3783 
  26   2.0000      -0.344163        -9.3651 
  27   2.0000      -0.313899        -8.5416 
  28   2.0000      -0.282612        -7.6903 
  29   0.0000      -0.109296        -2.9741 
  30   0.0000      -0.034749        -0.9456 
  31   0.0000       0.029455         0.8015 
  32   0.0000       0.031192         0.8488 
  33   0.0000       0.056079         1.5260 
  34   0.0000       0.093617         2.5474 
  35   0.0000       0.107931         2.9370 
  36   0.0000       0.130947         3.5632 
  37   0.0000       0.164854         4.4859 
  38   0.0000       0.176142         4.7931 
  39   0.0000       0.189993         5.1700 
*Only the first 10 virtual orbitals were printed.

                    ********************************
                    * MULLIKEN POPULATION ANALYSIS *
                    ********************************

-----------------------
MULLIKEN ATOMIC CHARGES
-----------------------
   0 C :   -0.080701
   1 C :    0.198212
   2 N :   -0.067143
   3 C :    0.180614
   4 N :    0.126235
   5 C :    0.126718
   6 O :   -0.193701
   7 O :   -0.197042
   8 H :    0.092970
   9 H :    0.222652
  10 H :    0.262862
  11 H :    0.062264
  12 H :    0.266060
Sum of atomic charges:    1.0000000

--------------------------------
MULLIKEN REDUCED ORBITAL CHARGES
--------------------------------
  0 C s       :     3.220118  s :     3.220118
      pz      :     1.075684  p :     2.830706
      px      :     0.885543
      py      :     0.869479
      dz2     :     0.003009  d :     0.029877
      dxz     :     0.002573
      dyz     :     0.004845
      dx2y2   :     0.008741
      dxy     :     0.010709

  1 C s       :     3.081162  s :     3.081162
      pz      :     0.868431  p :     2.666967
      px      :     0.817874
      py      :     0.980661
      dz2     :     0.004724  d :     0.053659
      dxz     :     0.008711
      dyz     :     0.008810
      dx2y2   :     0.014839
      dxy     :     0.016575

  2 N s       :     3.333780  s :     3.333780
      pz      :     1.548287  p :     3.712408
      px      :     1.030833
      py      :     1.133288
      dz2     :     0.002162  d :     0.020955
      dxz     :     0.004071
      dyz     :     0.001564
      dx2y2   :     0.005624
      dxy     :     0.007533

  3 C s       :     2.977773  s :     2.977773
      pz      :     0.873892  p :     2.704297
      px      :     0.912982
      py      :     0.917423
      dz2     :     0.007967  d :     0.137316
      dxz     :     0.029479
      dyz     :     0.011438
      dx2y2   :     0.046475
      dxy     :     0.041957

  4 N s       :     3.234505  s :     3.234505
      pz      :     1.278085  p :     3.615167
      px      :     1.189059
      py      :     1.148022
      dz2     :     0.003375  d :     0.024093
      dxz     :     0.004624
      dyz     :     0.004440
      dx2y2   :     0.006619
      dxy     :     0.005036

  5 C s       :     3.017717  s :     3.017717
      pz      :     0.859790  p :     2.740786
      px      :     0.949549
      py      :     0.931447
      dz2     :     0.008049  d :     0.114778
      dxz     :     0.010465
      dyz     :     0.020338
      dx2y2   :     0.027862
      dxy     :     0.048064

  6 O s       :     3.729056  s :     3.729056
      pz      :     1.393896  p :     4.445767
      px      :     1.338151
      py      :     1.713721
      dz2     :     0.002209  d :     0.018878
      dxz     :     0.005476
      dyz     :     0.000668
      dx2y2   :     0.005707
      dxy     :     0.004817

  7 O s       :     3.731313  s :     3.731313
      pz      :     1.329126  p :     4.447229
      px      :     1.793404
      py      :     1.324699
      dz2     :     0.002324  d :     0.018500
      dxz     :     0.000186
      dyz     :     0.006097
      dx2y2   :     0.006224
      dxy     :     0.003670

  8 H s       :     0.884027  s :     0.884027
      pz      :     0.003567  p :     0.023003
      px      :     0.010733
      py      :     0.008703

  9 H s       :     0.734002  s :     0.734002
      pz      :     0.009596  p :     0.043347
      px      :     0.005826
      py      :     0.027925

 10 H s       :     0.689156  s :     0.689156
      pz      :     0.023749  p :     0.047982
      px      :     0.015405
      py      :     0.008827

 11 H s       :     0.913292  s :     0.913292
      pz      :     0.004861  p :     0.024444
      px      :     0.014102
      py      :     0.005481

 12 H s       :     0.685560  s :     0.685560
      pz      :     0.020971  p :     0.048380
      px      :     0.013668
      py      :     0.013741



                     *******************************
                     * LOEWDIN POPULATION ANALYSIS *
                     *******************************

----------------------
LOEWDIN ATOMIC CHARGES
----------------------
   0 C :   -0.085417
   1 C :    0.129574
   2 N :    0.079595
   3 C :    0.112996
   4 N :    0.285042
   5 C :    0.094786
   6 O :   -0.160764
   7 O :   -0.146706
   8 H :    0.073323
   9 H :    0.149865
  10 H :    0.197504
  11 H :    0.070758
  12 H :    0.199443

-------------------------------
LOEWDIN REDUCED ORBITAL CHARGES
-------------------------------
  0 C s       :     2.867732  s :     2.867732
      pz      :     1.063837  p :     3.134157
      px      :     1.025104
      py      :     1.045217
      dz2     :     0.007550  d :     0.083527
      dxz     :     0.005084
      dyz     :     0.010318
      dx2y2   :     0.026864
      dxy     :     0.033712

  1 C s       :     2.850526  s :     2.850526
      pz      :     0.864323  p :     2.892270
      px      :     0.947222
      py      :     1.080725
      dz2     :     0.010305  d :     0.127630
      dxz     :     0.018203
      dyz     :     0.018352
      dx2y2   :     0.037623
      dxy     :     0.043147

  2 N s       :     3.034471  s :     3.034471
      pz      :     1.489492  p :     3.830047
      px      :     1.152754
      py      :     1.187801
      dz2     :     0.004499  d :     0.055887
      dxz     :     0.008294
      dyz     :     0.002907
      dx2y2   :     0.018845
      dxy     :     0.021342

  3 C s       :     2.789394  s :     2.789394
      pz      :     0.860665  p :     2.795059
      px      :     1.014248
      py      :     0.920146
      dz2     :     0.017689  d :     0.302551
      dxz     :     0.055966
      dyz     :     0.022125
      dx2y2   :     0.110249
      dxy     :     0.096522

  4 N s       :     2.984628  s :     2.984628
      pz      :     1.252939  p :     3.665152
      px      :     1.211973
      py      :     1.200241
      dz2     :     0.009359  d :     0.065177
      dxz     :     0.011760
      dyz     :     0.010525
      dx2y2   :     0.018676
      dxy     :     0.014857

  5 C s       :     2.832727  s :     2.832727
      pz      :     0.838767  p :     2.815548
      px      :     0.963531
      py      :     1.013250
      dz2     :     0.017579  d :     0.256939
      dxz     :     0.019895
      dyz     :     0.038960
      dx2y2   :     0.067512
      dxy     :     0.112992

  6 O s       :     3.544168  s :     3.544168
      pz      :     1.393250  p :     4.584458
      px      :     1.464605
      py      :     1.726603
      dz2     :     0.004558  d :     0.032137
      dxz     :     0.007109
      dyz     :     0.000808
      dx2y2   :     0.011038
      dxy     :     0.008625

  7 O s       :     3.543818  s :     3.543818
      pz      :     1.333902  p :     4.571368
      px      :     1.787521
      py      :     1.449945
      dz2     :     0.004284  d :     0.031520
      dxz     :     0.000275
      dyz     :     0.008454
      dx2y2   :     0.012713
      dxy     :     0.005794

  8 H s       :     0.856825  s :     0.856825
      pz      :     0.011285  p :     0.069852
      px      :     0.033206
      py      :     0.025361

  9 H s       :     0.729115  s :     0.729115
      pz      :     0.033249  p :     0.121019
      px      :     0.014395
      py      :     0.073375

 10 H s       :     0.684310  s :     0.684310
      pz      :     0.053974  p :     0.118186
      px      :     0.041333
      py      :     0.022879

 11 H s       :     0.856163  s :     0.856163
      pz      :     0.016452  p :     0.073079
      px      :     0.040912
      py      :     0.015716

 12 H s       :     0.682126  s :     0.682126
      pz      :     0.047065  p :     0.118431
      px      :     0.036454
      py      :     0.034912



                      *****************************
                      * MAYER POPULATION ANALYSIS *
                      *****************************

  NA   - Mulliken gross atomic population
  ZA   - Total nuclear charge
  QA   - Mulliken gross atomic charge
  VA   - Mayer's total valence
  BVA  - Mayer's bonded valence
  FA   - Mayer's free valence

  ATOM       NA         ZA         QA         VA         BVA        FA
  0 C      6.0807     6.0000    -0.0807     3.8525     3.8525    -0.0000
  1 C      5.8018     6.0000     0.1982     3.8693     3.8693    -0.0000
  2 N      7.0671     7.0000    -0.0671     3.3644     3.3644    -0.0000
  3 C      5.8194     6.0000     0.1806     4.4063     4.4063    -0.0000
  4 N      6.8738     7.0000     0.1262     3.4929     3.4929     0.0000
  5 C      5.8733     6.0000     0.1267     4.2970     4.2970    -0.0000
  6 O      8.1937     8.0000    -0.1937     2.3124     2.3124    -0.0000
  7 O      8.1970     8.0000    -0.1970     2.2891     2.2891    -0.0000
  8 H      0.9070     1.0000     0.0930     0.9827     0.9827     0.0000
  9 H      0.7773     1.0000     0.2227     0.9649     0.9649    -0.0000
 10 H      0.7371     1.0000     0.2629     0.9611     0.9611     0.0000
 11 H      0.9377     1.0000     0.0623     1.0031     1.0031     0.0000
 12 H      0.7339     1.0000     0.2661     0.9571     0.9571    -0.0000

  Mayer bond orders larger than 0.100000
B(  0-C ,  1-C ) :   1.6214 B(  0-C ,  5-C ) :   1.1129 B(  0-C , 11-H ) :   0.9806 
B(  1-C ,  2-N ) :   1.1408 B(  1-C ,  8-H ) :   0.9552 B(  2-N ,  3-C ) :   1.1990 
B(  2-N ,  9-H ) :   0.8865 B(  3-C ,  4-N ) :   0.9271 B(  3-C ,  6-O ) :   2.1667 
B(  4-N ,  5-C ) :   0.9153 B(  4-N , 10-H ) :   0.8528 B(  4-N , 12-H ) :   0.8526 
B(  5-C ,  7-O ) :   2.1313 

-------
TIMINGS
-------

Total SCF time: 0 days 0 hours 0 min 2 sec 

Total time                  ....       2.258 sec
Sum of individual times     ....       2.135 sec  ( 94.5%)

SCF preparation             ....       0.378 sec  ( 16.7%)
Fock matrix formation       ....       1.651 sec  ( 73.1%)
  Startup                   ....       0.002 sec  (  0.1% of F)
  Split-RI-J                ....       0.137 sec  (  8.3% of F)
  Chain of spheres X        ....       1.025 sec  ( 62.1% of F)
  XC integration            ....       0.254 sec  ( 15.4% of F)
    XC Preparation          ....       0.000 sec  (  0.0% of XC)
    Basis function eval.    ....       0.064 sec  ( 25.0% of XC)
    Density eval.           ....       0.033 sec  ( 13.0% of XC)
    XC-Functional eval.     ....       0.011 sec  (  4.4% of XC)
    XC-Potential eval.      ....       0.029 sec  ( 11.5% of XC)
  CPCM terms                ....       0.283 sec  ( 17.1% of F)
Diagonalization             ....       0.000 sec  (  0.0%)
Density matrix formation    ....       0.014 sec  (  0.6%)
Total Energy calculation    ....       0.010 sec  (  0.4%)
Population analysis         ....       0.005 sec  (  0.2%)
Orbital Transformation      ....       0.007 sec  (  0.3%)
Orbital Orthonormalization  ....       0.000 sec  (  0.0%)
DIIS solution               ....       0.034 sec  (  1.5%)
SOSCF solution              ....       0.037 sec  (  1.7%)
Finished LeanSCF after   2.3 sec

Maximum memory used throughout the entire LEANSCF-calculation: 11.4 MB


           ************************************************************
           *        Program running with 16 parallel MPI-processes    *
           *              working on a common directory               *
           ************************************************************

------------------------------------------------------------------------------
                         ORCA PROPERTY INTEGRAL CALCULATIONS
------------------------------------------------------------------------------

GBWName                                   ... Uracil_1.gbw
Number of atoms                           ...     13
Number of basis functions                 ...    137
Max core memory                           ...   4096 MB

Dipole integrals                          ... YES
Quadrupole integrals                      ...  NO
Linear momentum integrals                 ...  NO
Angular momentum integrals                ...  NO
Higher moments length integrals           ...  NO
Higher moments velocity integrals         ...  NO
Kinetic energy integrals                  ...  NO
GIAO right hand sides                     ...  NO
GIAO dipole derivative integrals          ...  NO
SOC integrals                             ...  NO
EPR diamagnetic integrals (GIAO)          ...  NO
EPR gauge integrals                       ...  NO
Field gradient integrals                  ...  NO (   0 nuclei)
Spin-dipole/Fermi contact integrals       ...  NO (   0 nuclei)
Contact density integrals                 ...  NO (   0 nuclei)
Nucleus-orbit integrals                   ...  NO (   0 nuclei)
Geometric perturbations                   ...  NO (  13 nuclei)

Choice of electric origin   ... Center of mass
Position of electric origin ... ( -0.4436,  0.4807,  0.0550) 
Choice of magnetic origin   ... GIAO
Position of magnetic origin ... (  0.0000,  0.0000,  0.0000) 

Calculating integrals                     ... Electric Dipole (Length)     done (  0.0 sec)

Property integrals calculated in   0.0 sec

Maximum memory used throughout the entire PROPINT-calculation: 8.5 MB

-------------------------   --------------------
FINAL SINGLE POINT ENERGY      -414.679665243702
-------------------------   --------------------



           ************************************************************
           *        Program running with 16 parallel MPI-processes    *
           *              working on a common directory               *
           ************************************************************
------------------------------------------------------------------------------
                         ORCA SCF GRADIENT CALCULATION
------------------------------------------------------------------------------

Nuc. rep. gradient        (SHARK) ... done (  0.0 sec)
HCore & Overlap gradient  (SHARK) ... done (  0.0 sec)
Split-RIJ-J gradient      (SHARK) ... done (  0.1 sec)
done (  0.6 sec)
XC gradient                       ... done (  0.1 sec)
CPCM gradient                     ... done (  0.1 sec)

------------------
CARTESIAN GRADIENT
------------------

   1   C   :    0.026178660   -0.017000834    0.002601518
   2   C   :   -0.008949869    0.012727425   -0.001999600
   3   N   :    0.008289315   -0.003055909    0.000129208
   4   C   :    0.049099445    0.082425832   -0.016142673
   5   N   :    0.020042548   -0.017080867    0.000313114
   6   C   :   -0.090559633   -0.064739736    0.016237034
   7   O   :   -0.008164088    0.017785869   -0.003029746
   8   O   :   -0.008405746   -0.004711249    0.001320632
   9   H   :    0.000627431    0.004007268   -0.000772166
  10   H   :    0.001639623    0.000692264   -0.000149992
  11   H   :    0.007061883   -0.000267871    0.021542483
  12   H   :   -0.002381244   -0.002697411    0.000586465
  13   H   :    0.005521675   -0.008084781   -0.020636276

Difference to translation invariance:
           :   -0.0000000001    0.0000000000   -0.0000000000

Difference to rotation invariance:
           :   -0.0007263225   -0.0008046009    0.0003101103

Norm of the Cartesian gradient     ...    0.1602377419
RMS gradient                       ...    0.0256585738
MAX gradient                       ...    0.0905596328

-------
TIMINGS
-------

Total SCF gradient time     ....        0.811 sec

Densities                   ....       0.000 sec  (  0.0%)
One electron gradient       ....       0.009 sec  (  1.1%)
RI-J Coulomb gradient       ....       0.058 sec  (  7.2%)
COSX gradient               ....       0.578 sec  ( 71.3%)
XC gradient                 ....       0.102 sec  ( 12.5%)
CPCM gradient               ....       0.062 sec  (  7.7%)
   A-Matrix (El+Nuc)        ....       0.002 sec  (  0.2%)
   Potential                ....       0.060 sec  (  7.4%)

Maximum memory used throughout the entire SCFGRAD-calculation: 14.4 MB
------------------------------------------------------------------------------
                         ORCA GEOMETRY RELAXATION STEP
------------------------------------------------------------------------------

Reading the OPT-File                    .... done
Getting information on internals        .... done
Copying old internal coords+grads       .... done
Making the new internal coordinates     .... (2022 redundants) done
Validating the new internal coordinates .... (2022 redundants) done
Calculating the B-matrix                .... done
Calculating the G,G- and P matrices     .... done
Transforming gradient to internals      .... done
Projecting the internal gradient        .... done
Number of atoms                         ....  13
Number of internal coordinates          ....  60
Current Energy                          ....  -414.679665244 Eh
Current gradient norm                   ....     0.160237742 Eh/bohr
Maximum allowed component of the step   ....  0.300
Current trust radius                    ....  0.300
Evaluating the initial hessian          ....  (Almloef) done
Projecting the Hessian                  .... done
Forming the augmented Hessian           .... done
Diagonalizing the augmented Hessian     .... done
Last element of RFO vector              ....  0.965335030
Lowest eigenvalues of augmented Hessian:
 -0.041376315  0.020515536  0.024888467  0.028931869  0.030000629
Length of the computed step             ....  0.270386898
The final length of the internal step   ....  0.270386898
Converting the step to Cartesian space:
 Initial RMS(Int)=    0.0349067984
Transforming coordinates:
 Iter   0:  RMS(Cart)=    0.0657974277 RMS(Int)=    0.0347956645
done
Storing new coordinates                 .... done

                                .--------------------.
          ----------------------|Geometry convergence|-------------------------
          Item                value                   Tolerance       Converged
          ---------------------------------------------------------------------
          RMS gradient        0.0199990032            0.0001000000      NO
          MAX gradient        0.0913633465            0.0003000000      NO
          RMS step            0.0349067984            0.0020000000      NO
          MAX step            0.1502050652            0.0040000000      NO
          -------------------------------------------------------------------------
          ........................................................
          Max(Bonds)      0.0795      Max(Angles)    4.02
          Max(Dihed)        0.54      Max(Improp)    0.00
          ---------------------------------------------------------------------

The optimization has not yet converged - more geometry cycles are needed


    ---------------------------------------------------------------------------
                         Redundant Internal Coordinates
                            (Angstroem and degrees)

        Definition                    Value    dE/dq     Step     New-Value
    ----------------------------------------------------------------------------
     1. B(C   1,C   0)                1.3366 -0.028655  0.0180    1.3545   
     2. B(N   2,C   1)                1.3709 -0.015281  0.0113    1.3822   
     3. B(C   3,N   2)                1.3610  0.006230 -0.0052    1.3558   
     4. B(N   4,C   3)                1.3763 -0.091363  0.0779    1.4542   
     5. B(C   5,N   4)                1.3819 -0.091179  0.0795    1.4614   
     6. B(C   5,C   0)                1.4678  0.017377 -0.0177    1.4501   
     7. B(O   6,C   3)                1.2113  0.002007 -0.0009    1.2103   
     8. B(O   7,C   5)                1.2121 -0.004853  0.0023    1.2144   
     9. B(H   8,C   1)                1.0889 -0.002179  0.0029    1.0918   
    10. B(H   9,N   2)                1.0194 -0.000916  0.0011    1.0204   
    11. B(H  10,N   4)                1.0182 -0.020856  0.0239    1.0421   
    12. B(H  11,C   0)                1.0827 -0.003348  0.0043    1.0870   
    13. B(H  12,N   4)                1.0184 -0.021265  0.0244    1.0428   
    14. A(C   5,C   0,H  11)          118.99  0.009782   -1.22    117.77   
    15. A(C   1,C   0,H  11)          124.23  0.006822   -0.72    123.51   
    16. A(C   1,C   0,C   5)          116.79 -0.016604    1.94    118.73   
    17. A(N   2,C   1,H   8)          116.83  0.011993   -1.38    115.45   
    18. A(C   0,C   1,H   8)          122.24  0.004784   -0.31    121.93   
    19. A(C   0,C   1,N   2)          120.93 -0.016777    1.69    122.62   
    20. A(C   3,N   2,H   9)          116.59  0.006279   -0.69    115.89   
    21. A(C   1,N   2,C   3)          123.33 -0.009612    0.96    124.29   
    22. A(C   1,N   2,H   9)          120.08  0.003333   -0.27    119.81   
    23. A(N   2,C   3,O   6)          127.36  0.009634   -1.03    126.33   
    24. A(N   2,C   3,N   4)          118.95  0.025832   -2.99    115.96   
    25. A(N   4,C   3,O   6)          113.70 -0.035467    4.02    117.72   
    26. A(C   3,N   4,H  10)          109.93  0.005795   -1.01    108.92   
    27. A(C   5,N   4,H  12)          109.49  0.005366   -0.84    108.65   
    28. A(C   3,N   4,C   5)          119.04 -0.013532    1.97    121.01   
    29. A(C   3,N   4,H  12)          109.15  0.005844   -0.91    108.24   
    30. A(C   5,N   4,H  10)          110.21  0.005525   -0.96    109.25   
    31. A(H  10,N   4,H  12)           96.72 -0.007535    1.63     98.35   
    32. A(C   0,C   5,N   4)          120.95  0.030697   -3.58    117.38   
    33. A(N   4,C   5,O   7)          113.74 -0.024997    2.87    116.60   
    34. A(C   0,C   5,O   7)          125.31 -0.005701    0.71    126.02   
    35. D(H   8,C   1,C   0,C   5)    179.94  0.000070   -0.01    179.93   
    36. D(N   2,C   1,C   0,C   5)      0.06  0.000015    0.00      0.07   
    37. D(H   8,C   1,C   0,H  11)      0.04 -0.000019    0.02      0.06   
    38. D(N   2,C   1,C   0,H  11)   -179.84 -0.000074    0.04   -179.80   
    39. D(C   3,N   2,C   1,H   8)    179.90  0.000023    0.02    179.91   
    40. D(H   9,N   2,C   1,C   0)    179.62  0.000143   -0.06    179.56   
    41. D(C   3,N   2,C   1,C   0)     -0.22  0.000069    0.01     -0.22   
    42. D(H   9,N   2,C   1,H   8)     -0.26  0.000097   -0.05     -0.31   
    43. D(O   6,C   3,N   2,H   9)     -0.04  0.000373   -0.14     -0.18   
    44. D(O   6,C   3,N   2,C   1)    179.80  0.000441   -0.20    179.60   
    45. D(N   4,C   3,N   2,H   9)    179.75 -0.000090   -0.00    179.75   
    46. D(N   4,C   3,N   2,C   1)     -0.40 -0.000022   -0.07     -0.47   
    47. D(H  10,N   4,C   3,N   2)    129.60  0.001436   -0.49    129.11   
    48. D(C   5,N   4,C   3,O   6)   -179.02 -0.000496    0.24   -178.78   
    49. D(C   5,N   4,C   3,N   2)      1.16 -0.000166    0.13      1.29   
    50. D(H  12,N   4,C   3,N   2)   -125.48 -0.001907    0.52   -124.96   
    51. D(H  10,N   4,C   3,O   6)    -50.58  0.001106   -0.38    -50.96   
    52. D(O   7,C   5,N   4,H  10)     50.53 -0.001169    0.38     50.91   
    53. D(O   7,C   5,N   4,C   3)    178.83  0.000525   -0.26    178.58   
    54. D(C   0,C   5,N   4,H  12)    125.14  0.001987   -0.52    124.62   
    55. D(C   0,C   5,N   4,H  10)   -129.64 -0.001636    0.54   -129.11   
    56. D(C   0,C   5,N   4,C   3)     -1.34  0.000059   -0.10     -1.44   
    57. D(O   7,C   5,C   0,H  11)      0.43 -0.000354    0.16      0.60   
    58. D(O   7,C   5,C   0,C   1)   -179.47 -0.000437    0.19   -179.27   
    59. D(N   4,C   5,C   0,H  11)   -179.38  0.000193   -0.01   -179.39   
    60. D(N   4,C   5,C   0,C   1)      0.72  0.000110    0.02      0.74   
    ----------------------------------------------------------------------------

Geometry step timings:
Preparation and reading OPT file:      0.000 s ( 1.814 %)
Internal coordinates            :      0.000 s ( 1.935 %)
B/P matrices and projection     :      0.000 s (30.109 %)
Hessian update/contruction      :      0.000 s (12.696 %)
Making the step                 :      0.000 s (25.272 %)
Converting the step to Cartesian:      0.000 s ( 4.111 %)
Storing new data                :      0.000 s ( 2.056 %)
Checking convergence            :      0.000 s ( 1.935 %)
Final printing                  :      0.000 s (20.073 %)
Total time                      :      0.001 s

Time for energy+gradient        :      5.546 s
Time for complete geometry iter :      5.992 s

         *************************************************************
         *                GEOMETRY OPTIMIZATION CYCLE   2            *
         *************************************************************
---------------------------------
CARTESIAN COORDINATES (ANGSTROEM)
---------------------------------
  C      1.424422    0.570540   -0.070948
  C      1.212601   -0.741267    0.192610
  N     -0.053346   -1.280107    0.325761
  C     -1.202076   -0.568795    0.213802
  N     -1.046894    0.851872   -0.054344
  C      0.277976    1.446298   -0.218226
  O     -2.327234   -1.002831    0.316555
  O      0.314089    2.634550   -0.466170
  H      2.037427   -1.446498    0.312201
  H     -0.163034   -2.276250    0.517857
  H     -1.642501    1.109145   -0.869823
  H      2.413240    1.008171   -0.181494
  H     -1.561530    1.381372    0.682020

----------------------------
CARTESIAN COORDINATES (A.U.)
----------------------------
  NO LB      ZA    FRAG     MASS         X           Y           Z
   0 C     6.0000    0    12.011    2.691767    1.078164   -0.134072
   1 C     6.0000    0    12.011    2.291483   -1.400791    0.363979
   2 N     7.0000    0    14.007   -0.100809   -2.419052    0.615599
   3 C     6.0000    0    12.011   -2.271595   -1.074867    0.404027
   4 N     7.0000    0    14.007   -1.978342    1.609804   -0.102696
   5 C     6.0000    0    12.011    0.525299    2.733107   -0.412388
   6 O     8.0000    0    15.999   -4.397834   -1.895076    0.598202
   7 O     8.0000    0    15.999    0.593541    4.978577   -0.880934
   8 H     1.0000    0     1.008    3.850179   -2.733485    0.589974
   9 H     1.0000    0     1.008   -0.308090   -4.301489    0.978608
  10 H     1.0000    0     1.008   -3.103876    2.095981   -1.643726
  11 H     1.0000    0     1.008    4.560362    1.905167   -0.342973
  12 H     1.0000    0     1.008   -2.950864    2.610415    1.288830

--------------------------------
INTERNAL COORDINATES (ANGSTROEM)
--------------------------------
 C      0   0   0     0.000000000000     0.00000000     0.00000000
 C      1   0   0     1.354683233162     0.00000000     0.00000000
 N      2   1   0     1.382280037840   122.64451058     0.00000000
 C      3   2   1     1.355758760958   124.29893790   359.78563371
 N      4   3   2     1.454056039992   115.93898393   359.53148303
 C      1   2   3     1.450165892284   118.74635777     0.06539535
 O      4   3   2     1.210340329070   126.33520108   179.60282104
 O      6   1   2     1.214381382174   126.02475873   180.72544281
 H      2   1   3     1.091783343260   121.91638323   179.86182861
 H      3   2   1     1.020408227833   119.81042736   179.55821329
 H      5   4   3     1.042085560601   108.93689184   129.10254316
 H      1   2   3     1.086969197196   123.49760778   180.20057225
 H      5   4   3     1.042810022079   108.25304661   235.04966546

---------------------------
INTERNAL COORDINATES (A.U.)
---------------------------
 C      0   0   0     0.000000000000     0.00000000     0.00000000
 C      1   0   0     2.559980308891     0.00000000     0.00000000
 N      2   1   0     2.612130711903   122.64451058     0.00000000
 C      3   2   1     2.562012761875   124.29893790   359.78563371
 N      4   3   2     2.747767698959   115.93898393   359.53148303
 C      1   2   3     2.740416385170   118.74635777     0.06539535
 O      4   3   2     2.287211750783   126.33520108   179.60282104
 O      6   1   2     2.294848234442   126.02475873   180.72544281
 H      2   1   3     2.063171516338   121.91638323   179.86182861
 H      3   2   1     1.928292095404   119.81042736   179.55821329
 H      5   4   3     1.969256317650   108.93689184   129.10254316
 H      1   2   3     2.054074098709   123.49760778   180.20057225
 H      5   4   3     1.970625351438   108.25304661   235.04966546



           ************************************************************
           *        Program running with 16 parallel MPI-processes    *
           *              working on a common directory               *
           ************************************************************
------------------------------------------------------------------------------
                   ___                                                        
                  /   \      - P O W E R E D   B Y -                         
                 /     \                                                     
                 |  |  |   _    _      __       _____    __    __             
                 |  |  |  | |  | |    /  \     |  _  \  |  |  /  |          
                  \  \/   | |  | |   /    \    | | | |  |  | /  /          
                 / \  \   | |__| |  /  /\  \   | |_| |  |  |/  /          
                |  |  |   |  __  | /  /__\  \  |    /   |      \           
                |  |  |   | |  | | |   __   |  |    \   |  |\   \          
                \     /   | |  | | |  |  |  |  | |\  \  |  | \   \       
                 \___/    |_|  |_| |__|  |__|  |_| \__\ |__|  \__/        
                                                                              
                      - O R C A' S   B I G   F R I E N D -                    
                                      &                                       
                       - I N T E G R A L  F E E D E R -                       
                                                                              
[...]
     13      -0.037378   0.015029   0.008153   0.010413   0.000080  -0.000228
     14       0.000452  -0.003067  -0.000599  -0.004595   0.000027   0.000002
     15       0.034790   0.009639   0.118682   0.104864   0.000886  -0.001760
     16       0.018928  -0.030402  -0.565384  -0.474769  -0.000126   0.002127
     17      -0.006633   0.007186   0.144459   0.117767   0.000027  -0.000515
     18       0.056436   0.049679   0.280526  -0.344926   0.000348  -0.000025
     19       0.015720   0.033283   0.115177  -0.141072   0.000098   0.000009
     20      -0.000848  -0.003825  -0.009776   0.012262  -0.000006  -0.000004
     21      -0.004686   0.011145  -0.013352  -0.011457  -0.000114   0.000143
     22      -0.020734  -0.030103   0.372905   0.294558   0.000005  -0.000407
     23       0.005730   0.007342  -0.096732  -0.075922   0.000000   0.000108
     24       0.011999   0.547691  -0.073803   0.027659  -0.694938  -0.280160
     25      -0.098236   0.259468  -0.058708   0.029593   0.593469   0.243215
     26       0.019755  -0.056422   0.016122  -0.004432  -0.119850  -0.048942
     27       0.644096   0.362185  -0.221654   0.262077   0.004392   0.001448
     28      -0.062508   0.085903  -0.017348  -0.026962  -0.004123  -0.006385
     29       0.017627  -0.024291   0.000537   0.007663   0.000698   0.001058
     30      -0.221154  -0.048563  -0.159383  -0.069165   0.001161  -0.002460
     31       0.332386   0.003862  -0.202880   0.101927  -0.000620   0.000900
     32       0.302117   0.030572   0.033534   0.006302   0.001588  -0.003206
     33      -0.004625   0.272999  -0.039586   0.022028   0.354387  -0.863665
     34      -0.122158  -0.163261  -0.114071  -0.091878   0.126094  -0.314120
     35       0.026829   0.041083   0.029511   0.025108  -0.033879   0.084008
     36      -0.293171  -0.038245  -0.080074  -0.051812   0.000952  -0.001875
     37       0.255500   0.012716  -0.104311   0.054196  -0.001201   0.002100
     38      -0.308573  -0.022414   0.036158   0.001838  -0.001992   0.003871
                 36         37         38    
      0       0.001396   0.000318   0.000676
      1       0.000153   0.000032   0.001429
      2      -0.000049  -0.000192  -0.000325
      3      -0.000182  -0.000016   0.001129
      4       0.000079   0.000014   0.000503
      5      -0.000098   0.000037  -0.000095
      6       0.000516   0.000074  -0.004685
      7       0.000128  -0.000055  -0.073183
      8      -0.000029  -0.000162   0.013367
      9       0.001112   0.000427   0.000232
     10       0.002167   0.000360   0.000670
     11      -0.000304   0.000523  -0.000161
     12      -0.044509  -0.020495  -0.000961
     13       0.037920  -0.001271   0.001163
     14       0.017730  -0.077040  -0.000163
     15      -0.002139  -0.000165   0.000351
     16      -0.002379  -0.000420  -0.000948
     17       0.000677   0.000721   0.000228
     18      -0.000812  -0.000124  -0.000695
     19      -0.000705  -0.000054  -0.000220
     20       0.000085   0.000010   0.000034
     21       0.000251   0.000049  -0.000048
     22       0.001022   0.000123   0.000509
     23      -0.000192  -0.000073  -0.000132
     24       0.000382  -0.000012  -0.004574
     25      -0.000327  -0.000045   0.003626
     26      -0.000089  -0.000135  -0.000535
     27       0.000576   0.000291   0.059933
     28      -0.014139  -0.004152   0.979332
     29       0.002707  -0.000280  -0.177541
     30       0.306628   0.494768   0.005980
     31      -0.136166  -0.227748  -0.002011
     32       0.426289   0.640038   0.007904
     33      -0.004600  -0.000329  -0.003066
     34      -0.003307  -0.000844  -0.000575
     35       0.000946  -0.000468   0.000067
     36       0.315011  -0.216484   0.003526
     37      -0.380036   0.250289  -0.003898
     38      -0.676802   0.421663  -0.007595


-----------
IR SPECTRUM
-----------

 Mode   freq       eps      Int      T**2         TX        TY        TZ
       cm**-1   L/(mol*cm) km/mol    a.u.
----------------------------------------------------------------------------
  6:     83.14   0.011450   57.86  0.042975  ( 0.017826  0.033633  0.203780)
  7:    153.02   0.000071    0.36  0.000145  ( 0.003614  0.002562 -0.011187)
  8:    352.75   0.003855   19.48  0.003410  ( 0.023699 -0.052936  0.006794)
  9:    381.45   0.004317   21.82  0.003532  ( 0.018017  0.002432  0.056580)
 10:    456.29   0.011217   56.69  0.007672  ( 0.077185 -0.041343 -0.002199)
 11:    488.52   0.015772   79.70  0.010075  (-0.065814 -0.074298  0.014936)
 12:    551.76   0.000949    4.79  0.000537  ( 0.006728  0.000099 -0.022164)
 13:    570.01   0.000250    1.26  0.000137  ( 0.011568 -0.001404 -0.001113)
 14:    645.31   0.007866   39.75  0.003804  ( 0.010300  0.001562 -0.060792)
 15:    696.02   0.013384   67.64  0.006001  ( 0.042745  0.039702  0.050966)
 16:    709.64   0.021240  107.34  0.009340  ( 0.027823  0.002277 -0.092525)
 17:    775.80   0.000676    3.42  0.000272  ( 0.007282  0.013777 -0.005411)
 18:    806.33   0.002755   13.92  0.001066  (-0.000296  0.014337  0.029333)
 19:    909.70   0.012582   63.59  0.004316  (-0.006364 -0.019166 -0.062517)
 20:    924.75   0.001494    7.55  0.000504  ( 0.008456  0.002405 -0.020664)
 21:   1013.01   0.000063    0.32  0.000019  ( 0.000215  0.002055  0.003881)
 22:   1070.20   0.005681   28.71  0.001657  (-0.038051  0.014447  0.000082)
 23:   1097.38   0.013491   68.18  0.003836  (-0.009713 -0.060049  0.011673)
 24:   1218.07   0.020349  102.84  0.005213  ( 0.006630 -0.071012  0.011258)
 25:   1263.12   0.000689    3.48  0.000170  ( 0.008371  0.008967 -0.004434)
 26:   1319.07   0.012943   65.41  0.003062  (-0.052217  0.018309 -0.000547)
 27:   1351.22   0.047542  240.26  0.010980  ( 0.101703  0.022796 -0.010804)
 28:   1421.89   0.006628   33.50  0.001455  ( 0.003448 -0.037335  0.006998)
 29:   1510.62   0.044341  224.08  0.009160  ( 0.094947 -0.008851 -0.008162)
 30:   1522.68   0.047814  241.63  0.009799  ( 0.063471  0.075191 -0.010803)
 31:   1669.51   0.107379  542.65  0.020071  (-0.033756 -0.134709  0.028019)
 32:   1866.73   0.251585  1271.41  0.042058  (-0.104691 -0.172276  0.037663)
 33:   1913.42   0.116274  587.60  0.018963  ( 0.125563 -0.052537  0.020907)
 34:   3232.06   0.002418   12.22  0.000233  ( 0.000465  0.014908 -0.003314)
 35:   3244.95   0.005252   26.54  0.000505  (-0.022457 -0.000604  0.000637)
 36:   3355.60   0.049491  250.11  0.004603  ( 0.050392 -0.042726 -0.015417)
 37:   3397.95   0.050350  254.45  0.004624  ( 0.019035 -0.000216  0.065281)
 38:   3556.12   0.063865  322.75  0.005604  (-0.001423  0.073487 -0.014212)

* The epsilon (eps) is given for a Dirac delta lineshape.
** The dipole moment derivative (T) already includes vibrational overlap.

The first frequency considered to be a vibration is 6
The total number of vibrations considered is 33


--------------------------
THERMOCHEMISTRY AT 298.15K
--------------------------

Temperature         ...   298.15 K
Pressure            ...     1.00 atm
Total Mass          ...   113.10 AMU
Quasi RRHO          ...     True
Cut-Off Frequency   ...     1.00 cm^-1

Throughout the following assumptions are being made:
  (1) The electronic state is orbitally nondegenerate
  (2) There are no thermally accessible electronically excited states
  (3) Hindered rotations indicated by low frequency modes are not
      treated as such but are treated as vibrations and this may
      cause some error
  (4) All equations used are the standard statistical mechanics
      equations for an ideal gas
  (5) All vibrations are strictly harmonic

freq.      83.14  E(vib)   ...       0.48 
freq.     153.02  E(vib)   ...       0.40 
freq.     352.75  E(vib)   ...       0.22 
freq.     381.45  E(vib)   ...       0.21 
freq.     456.29  E(vib)   ...       0.16 
freq.     488.52  E(vib)   ...       0.15 
freq.     551.76  E(vib)   ...       0.12 
freq.     570.01  E(vib)   ...       0.11 
freq.     645.31  E(vib)   ...       0.09 
freq.     696.02  E(vib)   ...       0.07 
freq.     709.64  E(vib)   ...       0.07 
freq.     775.80  E(vib)   ...       0.05 
freq.     806.33  E(vib)   ...       0.05 
freq.     909.70  E(vib)   ...       0.03 
freq.     924.75  E(vib)   ...       0.03 
freq.    1013.01  E(vib)   ...       0.02 
freq.    1070.20  E(vib)   ...       0.02 
freq.    1097.38  E(vib)   ...       0.02 
freq.    1218.07  E(vib)   ...       0.01 
freq.    1263.12  E(vib)   ...       0.01 
freq.    1319.07  E(vib)   ...       0.01 
freq.    1351.22  E(vib)   ...       0.01 
freq.    1421.89  E(vib)   ...       0.00 
freq.    1510.62  E(vib)   ...       0.00 
freq.    1522.68  E(vib)   ...       0.00 
freq.    1669.51  E(vib)   ...       0.00 
freq.    1866.73  E(vib)   ...       0.00 
freq.    1913.42  E(vib)   ...       0.00 
freq.    3232.06  E(vib)   ...       0.00 
freq.    3244.95  E(vib)   ...       0.00 
freq.    3355.60  E(vib)   ...       0.00 
freq.    3397.95  E(vib)   ...       0.00 
freq.    3556.12  E(vib)   ...       0.00 

------------
INNER ENERGY
------------

The inner energy is: U= E(el) + E(ZPE) + E(vib) + E(rot) + E(trans)
    E(el)   - is the total energy from the electronic structure calculation
              = E(kin-el) + E(nuc-el) + E(el-el) + E(nuc-nuc)
    E(ZPE)  - the the zero temperature vibrational energy from the frequency calculation
    E(vib)  - the the finite temperature correction to E(ZPE) due to population
              of excited vibrational states
    E(rot)  - is the rotational thermal energy
    E(trans)- is the translational thermal energy

Summary of contributions to the inner energy U:
Electronic energy                ...   -414.71425198 Eh
Zero point energy                ...      0.09916430 Eh      62.23 kcal/mol
Thermal vibrational correction   ...      0.00372868 Eh       2.34 kcal/mol
Thermal rotational correction    ...      0.00141627 Eh       0.89 kcal/mol
Thermal translational correction ...      0.00141627 Eh       0.89 kcal/mol
-----------------------------------------------------------------------
Total thermal energy                   -414.60852645 Eh


Summary of corrections to the electronic energy:
(perhaps to be used in another calculation)
Total thermal correction                  0.00656123 Eh       4.12 kcal/mol
Non-thermal (ZPE) correction              0.09916430 Eh      62.23 kcal/mol
-----------------------------------------------------------------------
Total correction                          0.10572553 Eh      66.34 kcal/mol


--------
ENTHALPY
--------

The enthalpy is H = U + kB*T
                kB is Boltzmann's constant
Total thermal energy              ...   -414.60852645 Eh 
Thermal Enthalpy correction       ...      0.00094421 Eh       0.59 kcal/mol
-----------------------------------------------------------------------
Total Enthalpy                    ...   -414.60758224 Eh


Note: Only C1 symmetry has been detected, increase convergence thresholds 
      if your molecule has a higher symmetry. Symmetry factor of 1.0 is   
      used for the rotational entropy correction. 
 

Note: Rotational entropy computed according to Herzberg 
Infrared and Raman Spectra, Chapter V,1, Van Nostrand Reinhold, 1945 
Point Group:  C1, Symmetry Number:   1  
Rotational constants in cm-1:     0.125783     0.062893     0.042268 

Vibrational entropy computed according to the QRRHO of S. Grimme
Chem.Eur.J. 2012 18 9955 using a reference frequency of 100.0 cm-1


-------
ENTROPY
-------

The entropy contributions are T*S = T*(S(el)+S(vib)+S(rot)+S(trans))
     S(el)   - electronic entropy
     S(vib)  - vibrational entropy
     S(rot)  - rotational entropy
     S(trans)- translational entropy
The entropies will be listed as multiplied by the temperature to get
units of energy

Electronic entropy                ...      0.00000000 Eh      0.00 kcal/mol
Vibrational entropy               ...      0.00601626 Eh      3.78 kcal/mol
Rotational entropy                ...      0.01328907 Eh      8.34 kcal/mol
Translational entropy             ...      0.01904554 Eh     11.95 kcal/mol
-----------------------------------------------------------------------
Final entropy term                ...      0.03835087 Eh     24.07 kcal/mol

In case the symmetry of your molecule has not been determined correctly
or in case you have a reason to use a different symmetry number we print 
out the resulting rotational entropy values for sn=1,12:

 non-linear molecules -----------------------------------
|  sn= 1 | S(rot)=       0.01328907 Eh      8.34 kcal/mol|
|  sn= 2 | S(rot)=       0.01263462 Eh      7.93 kcal/mol|
|  sn= 3 | S(rot)=       0.01225178 Eh      7.69 kcal/mol|
|  sn= 4 | S(rot)=       0.01198016 Eh      7.52 kcal/mol|
|  sn= 5 | S(rot)=       0.01176947 Eh      7.39 kcal/mol|
|  sn= 6 | S(rot)=       0.01159733 Eh      7.28 kcal/mol|
|  sn= 7 | S(rot)=       0.01145178 Eh      7.19 kcal/mol|
|  sn= 8 | S(rot)=       0.01132570 Eh      7.11 kcal/mol|
|  sn= 9 | S(rot)=       0.01121449 Eh      7.04 kcal/mol|
|  sn=10 | S(rot)=       0.01111501 Eh      6.97 kcal/mol|
|  sn=11 | S(rot)=       0.01102502 Eh      6.92 kcal/mol|
|  sn=12 | S(rot)=       0.01094287 Eh      6.87 kcal/mol|
 linear molecules ---------------------------------------
|  Dinfh | S(rot)=       0.00831295 Eh      5.22 kcal/mol|
|  Cinfv | S(rot)=       0.00896740 Eh      5.63 kcal/mol|
 --------------------------------------------------------


-------------------
GIBBS FREE ENERGY
-------------------

The Gibbs free energy is G = H - T*S

Total enthalpy                    ...   -414.60758224 Eh 
Total entropy correction          ...     -0.03835087 Eh    -24.07 kcal/mol
-----------------------------------------------------------------------
Final Gibbs free energy         ...   -414.64593311 Eh

For completeness - the Gibbs free energy minus the electronic energy
G-E(el)                           ...      0.06831887 Eh     42.87 kcal/mol


Maximum memory used throughout the entire PROP-calculation: 34.7 MB

--------------------------------
SUGGESTED CITATIONS FOR THIS RUN
--------------------------------

Below you find a list of papers that are relevant to this ORCA run
We neither can nor want to force you to cite these papers, but we appreciate if you do
You receive ORCA, which is the product of decades of hard work by many enthusiastic individuals, for free
The only thing we kindly ask in return is that you cite our papers,
We deeply appreciate it, if you show your appreciation for ORCA by not just citing the generic ORCA reference.

Please note that relegating all ORCA citations to the supporting information does *not* help us.
SI sections are not indexed - citations you put there will not count into any citation statistics
But we need these citations in order to attract the funding resources that allow us to do what we are doing

Therefore, if you are a happy ORCA user, please consider citing a few of the papers listed below in the main body of your paper

In addition to the list printed below, the program has created the file Uracil_1.bibtex that contains the list in bibtex format
You can import this file easily into all common literature databanks and citation aid programs


List of essential papers. We consider these as the minimum necessary citations

  1. Neese, F.
     Software update: the ORCA program system, version 6.0
     WIRES Comput. Molec. Sci. 2025 15(1), e70019
     doi.org/10.1002/wcms.7019

List of papers to cite with high priority. The work reported in these papers was absolutely
necessary for this run to complete.
Our perspective: the developers of density functionals and basis sets usually get cited in chemistry papers
Good! But without the algorithms to do something with them, the functionals or basis sets would not do anything.
Hence, in our opinion, the algorithm design and method developments papers are equally worthy of getting cited

  1. Neese, F.
     An improvement of the resolution of the identity approximation for the formation of the Coulomb matrix
     J. Comp. Chem. 2003 24(14), 1740-1747
     doi.org/10.1002/jcc.10318
  2. Neese, F.; Wennmohs, F.; Hansen, A.; Becker, U.
     Efficient, approximate and parallel Hartree-Fock and hybrid DFT calculations. A 'chain-of-spheres' algorithm for the Hartree-Fock exchange
     Chem. Phys. 2009 356(1-3), 98-109
     doi.org/10.1016/j.chemphys.2008.10.036
  3. Bykov, D.; Petrenko, T.; Izsak, R.; Kossmann, S.; Becker, U.; Valeev, E.; Neese, F.
     Efficient implementation of the analytic second derivatives of Hartree-Fock and hybrid DFT energies: a detailed analysis of different approximations
     Molec. Phys. 2015 113 , 1961-1977
     doi.org/10.1080/00268976.2015.1025114
  4. Garcia-Rates, M.; Neese, F.
     Efficient implementation of the analytical second derivatives of hartree-fock and hybrid DFT energies within the framework of the conductor-like polarizable continuum model
     J. Comput. Chem. 2019 40 , 1816-1828
     doi.org/10.1002/jcc.25833
  5. Garcia-Rates, M.; Neese, F.
     Effect of the Solute Cavity on the Solvation Energy and its Derivatives within the Framework of the Gaussian Charge Scheme
     J. Comput. Chem. 2020 41 , 922-939
     doi.org/10.1002/jcc.26139
  6. Helmich-Paris, B.; de Souza, B.; Neese, F.; Izsák, R.
     An improved chain of spheres for exchange algorithm
     J. Chem. Phys. 2021 155(10), 104109
     doi.org/10.1063/5.0058766
  7. Neese, F.
     The SHARK Integral Generation and Digestion System
     J. Comp. Chem. 2022 44(3), 381
     doi.org/10.1002/jcc.26942

List of suggested additional citations. These are papers that are important in the 'surrounding' of 
of this run, or papers that preceded the highly important papers. If you like your results we are grateful for a citation.

  1. Izsak, R.; Neese, F.
     An overlap fitted chain of spheres exchange method
     J. Chem. Phys. 2011 135 , 144105
     doi.org/10.1063/1.3646921
  2. Izsak, R.; Hansen, A.; Neese, F.
     The resolution of identity and chain of spheres approximations for the LPNO-CCSD singles Fock term
     Molec. Phys. 2012 110 , 2413-2417
     doi.org/10.1080/00268976.2012.687466
  3. Neese, F.
     The ORCA program system
     WIRES Comput. Molec. Sci. 2012 2(1), 73-78
     doi.org/10.1002/wcms.81
  4. Izsak, R.; Neese, F.; Klopper, W.
     Robust fitting techniques in the chain of spheres approximation to the Fock exchange: The role of the complementary space
     J. Chem. Phys. 2013 139 , 
     doi.org/10.1063/1.4819264
  5. Neese, F.
     Software update: the ORCA program system, version 4.0
     WIRES Comput. Molec. Sci. 2018 8(1), 1-6
     doi.org/10.1002/wcms.1327
  6. Neese, F.; Wennmohs, F.; Becker, U.; Riplinger, C.
     The ORCA quantum chemistry program package
     J. Chem. Phys. 2020 152(22), 224108
     doi.org/10.1063/5.0004608
  7. Neese, F.
     Software update: The ORCA program system—Version 5.0
     WIRES Comput. Molec. Sci. 2022 12(1), e1606
     doi.org/10.1002/wcms.1606

List of optional additional citations

  1. Neese, F.
     Approximate second-order SCF convergence for spin unrestricted wavefunctions
     Chem. Phys. Lett. 2000 325(1-3), 93-98
     doi.org/10.1016/s0009-2614(00)00662-x

Timings for individual modules:

Sum of individual times          ...       98.847 sec (=   1.647 min)
Startup calculation              ...       13.862 sec (=   0.231 min)  14.0 %
SCF iterations                   ...       39.123 sec (=   0.652 min)  39.6 %
Property integrals               ...       11.817 sec (=   0.197 min)  12.0 %
SCF Response                     ...        5.421 sec (=   0.090 min)   5.5 %
Property calculations            ...        7.932 sec (=   0.132 min)   8.0 %
SCF Gradient evaluation          ...       20.673 sec (=   0.345 min)  20.9 %
Geometry relaxation              ...        0.019 sec (=   0.000 min)   0.0 %
                             ****ORCA TERMINATED NORMALLY****
TOTAL RUN TIME: 0 days 0 hours 1 minutes 46 seconds 681 msec
