13
* (null), Energy   -1000.0000000
C     1.653111    0.338806   -0.072409   -0.177440    0.140549    0.002718
C     1.417036   -0.968802    0.212159   -0.603850    0.300638   -0.008485
N     0.169278   -1.530502    0.333752   -0.196056    0.187965   -0.078725
C    -1.013486   -0.875739    0.188129    0.266041    0.380602   -0.058040
N    -0.831970    0.606548   -0.032497   -0.033069   -0.686504    0.100610
C     0.583167    1.266264   -0.274550    0.133220   -0.078713    0.019770
O    -2.113843   -1.335674    0.228076    0.433492    0.145193   -0.006160
O     0.565830    2.420049   -0.573838    0.136817   -0.176325    0.037115
H     2.239204   -1.673303    0.354845   -0.591620    0.321951   -0.204305
H     0.099186   -2.533091    0.514228   -0.299229    0.227169    0.010437
H    -1.444922    0.886451   -0.818414   -0.240914   -0.874945    0.203483
H     2.672257    0.711579   -0.172265   -0.069548   -0.307391   -0.400327
H    -1.242310    1.089691    0.787885   -0.114659   -0.799291    0.120004
13
* Frequency(17)  775.8000
C     1.632946    0.354779   -0.072100   -0.177440    0.140549    0.002718
C     1.348412   -0.934636    0.211195   -0.603850    0.300638   -0.008485
N     0.146998   -1.509141    0.324805   -0.196056    0.187965   -0.078725
C    -0.983252   -0.832486    0.181534    0.266041    0.380602   -0.058040
N    -0.835728    0.528531   -0.021063   -0.033069   -0.686504    0.100610
C     0.598307    1.257319   -0.272303    0.133220   -0.078713    0.019770
O    -2.064579   -1.319173    0.227376    0.433492    0.145193   -0.006160
O     0.581378    2.400011   -0.569620    0.136817   -0.176325    0.037115
H     2.171969   -1.636714    0.331626   -0.591620    0.321951   -0.204305
H     0.065181   -2.507275    0.515414   -0.299229    0.227169    0.010437
H    -1.472301    0.787018   -0.795289   -0.240914   -0.874945    0.203483
H     2.664353    0.676646   -0.217760   -0.069548   -0.307391   -0.400327
H    -1.255341    0.998855    0.801523   -0.114659   -0.799291    0.120004
13
* Frequency(17)  775.8000
C     1.614966    0.369021   -0.071824   -0.177440    0.140549    0.002718
C     1.287224   -0.904172    0.210335   -0.603850    0.300638   -0.008485
N     0.127131   -1.490095    0.316828   -0.196056    0.187965   -0.078725
C    -0.956294   -0.793920    0.175652    0.266041    0.380602   -0.058040
N    -0.839079    0.458968   -0.010868   -0.033069   -0.686504    0.100610
C     0.611806    1.249343   -0.270300    0.133220   -0.078713    0.019770
O    -2.020654   -1.304461    0.226752    0.433492    0.145193   -0.006160
O     0.595242    2.382144   -0.565859    0.136817   -0.176325    0.037115
H     2.112021   -1.604091    0.310924   -0.591620    0.321951   -0.204305
H     0.034860   -2.484256    0.516472   -0.299229    0.227169    0.010437
H    -1.496713    0.698360   -0.774670   -0.240914   -0.874945    0.203483
H     2.657306    0.645498   -0.258325   -0.069548   -0.307391   -0.400327
H    -1.266959    0.917863    0.813683   -0.114659   -0.799291    0.120004
13
* Frequency(17)  775.8000
C     1.601120    0.379988   -0.071612   -0.177440    0.140549    0.002718
C     1.240104   -0.880712    0.209673   -0.603850    0.300638   -0.008485
N     0.111832   -1.475427    0.310685   -0.196056    0.187965   -0.078725
C    -0.935534   -0.764220    0.171123    0.266041    0.380602   -0.058040
N    -0.841659    0.405397   -0.003017   -0.033069   -0.686504    0.100610
C     0.622202    1.243201   -0.268757    0.133220   -0.078713    0.019770
O    -1.986827   -1.293131    0.226271    0.433492    0.145193   -0.006160
O     0.605918    2.368385   -0.562963    0.136817   -0.176325    0.037115
H     2.065854   -1.578968    0.294982   -0.591620    0.321951   -0.204305
H     0.011510   -2.466529    0.517286   -0.299229    0.227169    0.010437
H    -1.515512    0.630084   -0.758792   -0.240914   -0.874945    0.203483
H     2.651879    0.621511   -0.289564   -0.069548   -0.307391   -0.400327
H    -1.275906    0.855492    0.823047   -0.114659   -0.799291    0.120004
13
* Frequency(17)  775.8000
C     1.592908    0.386493   -0.071486   -0.177440    0.140549    0.002718
C     1.212156   -0.866798    0.209280   -0.603850    0.300638   -0.008485
N     0.102759   -1.466728    0.307041   -0.196056    0.187965   -0.078725
C    -0.923221   -0.746605    0.168437    0.266041    0.380602   -0.058040
N    -0.843190    0.373624    0.001639   -0.033069   -0.686504    0.100610
C     0.628367    1.239558   -0.267842    0.133220   -0.078713    0.019770
O    -1.966764   -1.286411    0.225986    0.433492    0.145193   -0.006160
O     0.612251    2.360224   -0.561245    0.136817   -0.176325    0.037115
H     2.038473   -1.564068    0.285526   -0.591620    0.321951   -0.204305
H    -0.002339   -2.456015    0.517769   -0.299229    0.227169    0.010437
H    -1.526662    0.589590   -0.749374   -0.240914   -0.874945    0.203483
H     2.648660    0.607285   -0.308092   -0.069548   -0.307391   -0.400327
H    -1.281213    0.818499    0.828601   -0.114659   -0.799291    0.120004
13
* Frequency(17)  775.8000
C     1.591220    0.387830   -0.071461   -0.177440    0.140549    0.002718
C     1.206411   -0.863938    0.209199   -0.603850    0.300638   -0.008485
N     0.100893   -1.464939    0.306292   -0.196056    0.187965   -0.078725
C    -0.920690   -0.742984    0.167885    0.266041    0.380602   -0.058040
N    -0.843504    0.367093    0.002596   -0.033069   -0.686504    0.100610
C     0.629635    1.238809   -0.267654    0.133220   -0.078713    0.019770
O    -1.962639   -1.285030    0.225928    0.433492    0.145193   -0.006160
O     0.613552    2.358546   -0.560892    0.136817   -0.176325    0.037115
H     2.032844   -1.561005    0.283582   -0.591620    0.321951   -0.204305
H    -0.005186   -2.453854    0.517869   -0.299229    0.227169    0.010437
H    -1.528954    0.581266   -0.747438   -0.240914   -0.874945    0.203483
H     2.647998    0.604360   -0.311900   -0.069548   -0.307391   -0.400327
H    -1.282304    0.810894    0.829743   -0.114659   -0.799291    0.120004
13
* Frequency(17)  775.8000
C     1.596238    0.383855   -0.071537   -0.177440    0.140549    0.002718
C     1.223490   -0.872441    0.209439   -0.603850    0.300638   -0.008485
N     0.106438   -1.470256    0.308519   -0.196056    0.187965   -0.078725
C    -0.928215   -0.753749    0.169527    0.266041    0.380602   -0.058040
N    -0.842569    0.386510   -0.000249   -0.033069   -0.686504    0.100610
C     0.625867    1.241035   -0.268213    0.133220   -0.078713    0.019770
O    -1.974900   -1.289136    0.226102    0.433492    0.145193   -0.006160
O     0.609683    2.363533   -0.561941    0.136817   -0.176325    0.037115
H     2.049577   -1.570111    0.289361   -0.591620    0.321951   -0.204305
H     0.003277   -2.460279    0.517573   -0.299229    0.227169    0.010437
H    -1.522140    0.606013   -0.753194   -0.240914   -0.874945    0.203483
H     2.649965    0.613054   -0.300578   -0.069548   -0.307391   -0.400327
H    -1.279061    0.833501    0.826349   -0.114659   -0.799291    0.120004
13
* Frequency(17)  775.8000
C     1.607420    0.374998   -0.071709   -0.177440    0.140549    0.002718
C     1.261543   -0.891387    0.209974   -0.603850    0.300638   -0.008485
N     0.118793   -1.482101    0.313480   -0.196056    0.187965   -0.078725
C    -0.944980   -0.777733    0.173184    0.266041    0.380602   -0.058040
N    -0.840485    0.429771   -0.006589   -0.033069   -0.686504    0.100610
C     0.617472    1.245996   -0.269459    0.133220   -0.078713    0.019770
O    -2.002218   -1.298286    0.226490    0.433492    0.145193   -0.006160
O     0.601061    2.374645   -0.564280    0.136817   -0.176325    0.037115
H     2.086860   -1.590399    0.302235   -0.591620    0.321951   -0.204305
H     0.022134   -2.474595    0.516916   -0.299229    0.227169    0.010437
H    -1.506959    0.661149   -0.766016   -0.240914   -0.874945    0.203483
H     2.654348    0.632425   -0.275350   -0.069548   -0.307391   -0.400327
H    -1.271835    0.883870    0.818786   -0.114659   -0.799291    0.120004
13
* Frequency(17)  775.8000
C     1.623553    0.362219   -0.071956   -0.177440    0.140549    0.002718
C     1.316446   -0.918721    0.210745   -0.603850    0.300638   -0.008485
N     0.136619   -1.499191    0.320638   -0.196056    0.187965   -0.078725
C    -0.969169   -0.812338    0.178461    0.266041    0.380602   -0.058040
N    -0.837478    0.492189   -0.015737   -0.033069   -0.686504    0.100610
C     0.605359    1.253152   -0.271256    0.133220   -0.078713    0.019770
O    -2.041632   -1.311487    0.227050    0.433492    0.145193   -0.006160
O     0.588621    2.390677   -0.567655    0.136817   -0.176325    0.037115
H     2.140651   -1.619671    0.320811   -0.591620    0.321951   -0.204305
H     0.049340   -2.495249    0.515967   -0.299229    0.227169    0.010437
H    -1.485054    0.740701   -0.784518   -0.240914   -0.874945    0.203483
H     2.660671    0.660374   -0.238952   -0.069548   -0.307391   -0.400327
H    -1.261410    0.956543    0.807875   -0.114659   -0.799291    0.120004
13
* Frequency(17)  775.8000
C     1.642889    0.346903   -0.072252   -0.177440    0.140549    0.002718
C     1.382250   -0.951483    0.211670   -0.603850    0.300638   -0.008485
N     0.157984   -1.519674    0.329217   -0.196056    0.187965   -0.078725
C    -0.998160   -0.853814    0.184786    0.266041    0.380602   -0.058040
N    -0.833875    0.567000   -0.026701   -0.033069   -0.686504    0.100610
C     0.590842    1.261730   -0.273411    0.133220   -0.078713    0.019770
O    -2.088871   -1.327309    0.227721    0.433492    0.145193   -0.006160
O     0.573712    2.409892   -0.571700    0.136817   -0.176325    0.037115
H     2.205122   -1.654756    0.343075   -0.591620    0.321951   -0.204305
H     0.081948   -2.520005    0.514830   -0.299229    0.227169    0.010437
H    -1.458801    0.836047   -0.806692   -0.240914   -0.874945    0.203483
H     2.668250    0.693871   -0.195327   -0.069548   -0.307391   -0.400327
H    -1.248915    1.043645    0.794798   -0.114659   -0.799291    0.120004
13
* Frequency(17)  775.8000
C     1.663333    0.330710   -0.072565   -0.177440    0.140549    0.002718
C     1.451823   -0.986121    0.212648   -0.603850    0.300638   -0.008485
N     0.180573   -1.541331    0.338287   -0.196056    0.187965   -0.078725
C    -1.028812   -0.897665    0.191473    0.266041    0.380602   -0.058040
N    -0.830064    0.646096   -0.038293   -0.033069   -0.686504    0.100610
C     0.575493    1.270799   -0.275688    0.133220   -0.078713    0.019770
O    -2.138816   -1.344038    0.228431    0.433492    0.145193   -0.006160
O     0.557948    2.430207   -0.575976    0.136817   -0.176325    0.037115
H     2.273286   -1.691849    0.366614   -0.591620    0.321951   -0.204305
H     0.116424   -2.546178    0.513627   -0.299229    0.227169    0.010437
H    -1.431044    0.936855   -0.830136   -0.240914   -0.874945    0.203483
H     2.676263    0.729287   -0.149203   -0.069548   -0.307391   -0.400327
H    -1.235705    1.135736    0.780972   -0.114659   -0.799291    0.120004
13
* Frequency(17)  775.8000
C     1.682669    0.315394   -0.072861   -0.177440    0.140549    0.002718
C     1.517627   -1.018883    0.213572   -0.603850    0.300638   -0.008485
N     0.201938   -1.561814    0.346866   -0.196056    0.187965   -0.078725
C    -1.057804   -0.939141    0.197798    0.266041    0.380602   -0.058040
N    -0.826461    0.720907   -0.049257   -0.033069   -0.686504    0.100610
C     0.560975    1.279377   -0.277843    0.133220   -0.078713    0.019770
O    -2.186055   -1.359860    0.229102    0.433492    0.145193   -0.006160
O     0.543039    2.449422   -0.580020    0.136817   -0.176325    0.037115
H     2.337757   -1.726934    0.388878   -0.591620    0.321951   -0.204305
H     0.149033   -2.570934    0.512490   -0.299229    0.227169    0.010437
H    -1.404790    1.032200   -0.852311   -0.240914   -0.874945    0.203483
H     2.683842    0.762785   -0.105577   -0.069548   -0.307391   -0.400327
H    -1.223210    1.222838    0.767894   -0.114659   -0.799291    0.120004
13
* Frequency(17)  775.8000
C     1.698803    0.302615   -0.073108   -0.177440    0.140549    0.002718
C     1.572530   -1.046217    0.214344   -0.603850    0.300638   -0.008485
N     0.219763   -1.578904    0.354024   -0.196056    0.187965   -0.078725
C    -1.081993   -0.973746    0.203075    0.266041    0.380602   -0.058040
N    -0.823454    0.783325   -0.058404   -0.033069   -0.686504    0.100610
C     0.548862    1.286533   -0.279640    0.133220   -0.078713    0.019770
O    -2.225469   -1.373061    0.229663    0.433492    0.145193   -0.006160
O     0.530599    2.465454   -0.583395    0.136817   -0.176325    0.037115
H     2.391548   -1.756206    0.407454   -0.591620    0.321951   -0.204305
H     0.176239   -2.591588    0.511541   -0.299229    0.227169    0.010437
H    -1.382886    1.111752   -0.870812   -0.240914   -0.874945    0.203483
H     2.690166    0.790733   -0.069179   -0.069548   -0.307391   -0.400327
H    -1.212785    1.295511    0.756983   -0.114659   -0.799291    0.120004
13
* Frequency(17)  775.8000
C     1.709984    0.293758   -0.073280   -0.177440    0.140549    0.002718
C     1.610583   -1.065163    0.214878   -0.603850    0.300638   -0.008485
N     0.232118   -1.590749    0.358985   -0.196056    0.187965   -0.078725
C    -1.098758   -0.997730    0.206732    0.266041    0.380602   -0.058040
N    -0.821370    0.826587   -0.064744   -0.033069   -0.686504    0.100610
C     0.540467    1.291494   -0.280886    0.133220   -0.078713    0.019770
O    -2.252787   -1.382211    0.230051    0.433492    0.145193   -0.006160
O     0.521977    2.476565   -0.585734    0.136817   -0.176325    0.037115
H     2.428830   -1.776494    0.420329   -0.591620    0.321951   -0.204305
H     0.195096   -2.605904    0.510883   -0.299229    0.227169    0.010437
H    -1.367704    1.166889   -0.883634   -0.240914   -0.874945    0.203483
H     2.694548    0.810104   -0.043952   -0.069548   -0.307391   -0.400327
H    -1.205560    1.345880    0.749421   -0.114659   -0.799291    0.120004
13
* Frequency(17)  775.8000
C     1.715003    0.289782   -0.073357   -0.177440    0.140549    0.002718
C     1.627662   -1.073666    0.215118   -0.603850    0.300638   -0.008485
N     0.237663   -1.596065    0.361211   -0.196056    0.187965   -0.078725
C    -1.106283   -1.008495    0.208374    0.266041    0.380602   -0.058040
N    -0.820435    0.846004   -0.067590   -0.033069   -0.686504    0.100610
C     0.536699    1.293720   -0.281445    0.133220   -0.078713    0.019770
O    -2.265047   -1.386318    0.230225    0.433492    0.145193   -0.006160
O     0.518107    2.481552   -0.586784    0.136817   -0.176325    0.037115
H     2.445564   -1.785600    0.426107   -0.591620    0.321951   -0.204305
H     0.203559   -2.612329    0.510588   -0.299229    0.227169    0.010437
H    -1.360890    1.191635   -0.889390   -0.240914   -0.874945    0.203483
H     2.696515    0.818798   -0.032629   -0.069548   -0.307391   -0.400327
H    -1.202317    1.368487    0.746027   -0.114659   -0.799291    0.120004
13
* Frequency(17)  775.8000
C     1.713315    0.291120   -0.073331   -0.177440    0.140549    0.002718
C     1.621917   -1.070805    0.215038   -0.603850    0.300638   -0.008485
N     0.235798   -1.594277    0.360462   -0.196056    0.187965   -0.078725
C    -1.103751   -1.004874    0.207822    0.266041    0.380602   -0.058040
N    -0.820749    0.839472   -0.066633   -0.033069   -0.686504    0.100610
C     0.537967    1.292971   -0.281257    0.133220   -0.078713    0.019770
O    -2.260923   -1.384936    0.230166    0.433492    0.145193   -0.006160
O     0.519409    2.479875   -0.586431    0.136817   -0.176325    0.037115
H     2.439935   -1.782537    0.424163   -0.591620    0.321951   -0.204305
H     0.200712   -2.610168    0.510687   -0.299229    0.227169    0.010437
H    -1.363182    1.183311   -0.887454   -0.240914   -0.874945    0.203483
H     2.695854    0.815874   -0.036438   -0.069548   -0.307391   -0.400327
H    -1.203408    1.360882    0.747169   -0.114659   -0.799291    0.120004
13
* Frequency(17)  775.8000
C     1.705103    0.297625   -0.073205   -0.177440    0.140549    0.002718
C     1.593969   -1.056891    0.214645   -0.603850    0.300638   -0.008485
N     0.226724   -1.585578    0.356819   -0.196056    0.187965   -0.078725
C    -1.091439   -0.987259    0.205136    0.266041    0.380602   -0.058040
N    -0.822280    0.807700   -0.061976   -0.033069   -0.686504    0.100610
C     0.544132    1.289328   -0.280342    0.133220   -0.078713    0.019770
O    -2.240860   -1.378216    0.229881    0.433492    0.145193   -0.006160
O     0.525741    2.471714   -0.584713    0.136817   -0.176325    0.037115
H     2.412553   -1.767637    0.414708   -0.591620    0.321951   -0.204305
H     0.186863   -2.599654    0.511170   -0.299229    0.227169    0.010437
H    -1.374332    1.142817   -0.878036   -0.240914   -0.874945    0.203483
H     2.692635    0.801647   -0.054966   -0.069548   -0.307391   -0.400327
H    -1.208714    1.323889    0.752723   -0.114659   -0.799291    0.120004
13
* Frequency(17)  775.8000
C     1.691256    0.308592   -0.072993   -0.177440    0.140549    0.002718
C     1.546849   -1.033431    0.213983   -0.603850    0.300638   -0.008485
N     0.211425   -1.570910    0.350676   -0.196056    0.187965   -0.078725
C    -1.070678   -0.957559    0.200606    0.266041    0.380602   -0.058040
N    -0.824860    0.754129   -0.054125   -0.033069   -0.686504    0.100610
C     0.554528    1.283186   -0.278800    0.133220   -0.078713    0.019770
O    -2.207033   -1.366886    0.229401    0.433492    0.145193   -0.006160
O     0.536418    2.457955   -0.581817    0.136817   -0.176325    0.037115
H     2.366387   -1.742514    0.398765   -0.591620    0.321951   -0.204305
H     0.163513   -2.581927    0.511985   -0.299229    0.227169    0.010437
H    -1.393132    1.074541   -0.862158   -0.240914   -0.874945    0.203483
H     2.687208    0.777660   -0.086205   -0.069548   -0.307391   -0.400327
H    -1.217661    1.261518    0.762087   -0.114659   -0.799291    0.120004
13
* Frequency(17)  775.8000
C     1.673276    0.322834   -0.072717   -0.177440    0.140549    0.002718
C     1.485661   -1.002968    0.213123   -0.603850    0.300638   -0.008485
N     0.191559   -1.551864    0.342698   -0.196056    0.187965   -0.078725
C    -1.043720   -0.918993    0.194725    0.266041    0.380602   -0.058040
N    -0.828211    0.684566   -0.043931   -0.033069   -0.686504    0.100610
C     0.568027    1.275210   -0.276796    0.133220   -0.078713    0.019770
O    -2.163108   -1.352174    0.228776    0.433492    0.145193   -0.006160
O     0.550281    2.440088   -0.578056    0.136817   -0.176325    0.037115
H     2.306438   -1.709891    0.378063   -0.591620    0.321951   -0.204305
H     0.133192   -2.558908    0.513042   -0.299229    0.227169    0.010437
H    -1.417544    0.985884   -0.841539   -0.240914   -0.874945    0.203483
H     2.680161    0.746513   -0.126770   -0.069548   -0.307391   -0.400327
H    -1.229280    1.180526    0.774247   -0.114659   -0.799291    0.120004
13
* Frequency(17)  775.8000
C     1.653111    0.338806   -0.072409   -0.177440    0.140549    0.002718
C     1.417036   -0.968802    0.212159   -0.603850    0.300638   -0.008485
N     0.169278   -1.530502    0.333752   -0.196056    0.187965   -0.078725
C    -1.013486   -0.875739    0.188129    0.266041    0.380602   -0.058040
N    -0.831970    0.606548   -0.032497   -0.033069   -0.686504    0.100610
C     0.583167    1.266264   -0.274550    0.133220   -0.078713    0.019770
O    -2.113843   -1.335674    0.228076    0.433492    0.145193   -0.006160
O     0.565830    2.420049   -0.573838    0.136817   -0.176325    0.037115
H     2.239204   -1.673303    0.354845   -0.591620    0.321951   -0.204305
H     0.099186   -2.533091    0.514228   -0.299229    0.227169    0.010437
H    -1.444922    0.886451   -0.818414   -0.240914   -0.874945    0.203483
H     2.672257    0.711579   -0.172265   -0.069548   -0.307391   -0.400327
H    -1.242310    1.089691    0.787885   -0.114659   -0.799291    0.120004
