13
* (null), Energy   -1000.0000000
C     1.365855    0.533997   -0.017795    0.126531   -0.141796    0.069076
C     1.281863   -0.788655    0.093257   -0.387437   -0.000623   -0.054117
N    -0.021011   -1.450395    0.118437    0.322531    0.154086   -0.003517
C    -1.289878   -0.622329    0.007801    0.036214   -0.047120    0.000474
N    -1.064188    0.706802   -0.097341   -0.242979   -0.023088   -0.004652
C     0.168081    1.391376   -0.119566    0.043108    0.028987   -0.006229
O    -2.334795   -1.198357    0.024143   -0.011566    0.080343   -0.006317
O     0.193513    2.595440   -0.217241   -0.005870    0.007808    0.001279
H     2.123010   -1.478478    0.173803   -0.454043   -0.015869    0.278102
H    -0.114939   -2.012404    0.984263    0.797995    0.060449   -0.010401
H    -1.901448    1.289086   -0.172072   -0.419921   -0.260023    0.010453
H     2.334895    1.034094   -0.036100    0.644630   -1.173158   -0.224826
H    -0.071619   -2.162707   -0.633029    0.766329    0.082241    0.030472
13
* Frequency(22)  982.4829
C     1.380235    0.517883   -0.009945    0.126531   -0.141796    0.069076
C     1.237833   -0.788726    0.087107   -0.387437   -0.000623   -0.054117
N     0.015643   -1.432884    0.118038    0.322531    0.154086   -0.003517
C    -1.285762   -0.627684    0.007855    0.036214   -0.047120    0.000474
N    -1.091801    0.704178   -0.097870   -0.242979   -0.023088   -0.004652
C     0.172980    1.394670   -0.120274    0.043108    0.028987   -0.006229
O    -2.336109   -1.189227    0.023425   -0.011566    0.080343   -0.006317
O     0.192846    2.596328   -0.217096   -0.005870    0.007808    0.001279
H     2.071410   -1.480281    0.205408   -0.454043   -0.015869    0.278102
H    -0.024251   -2.005534    0.983081    0.797995    0.060449   -0.010401
H    -1.949170    1.259536   -0.170885   -0.419921   -0.260023    0.010453
H     2.408154    0.900771   -0.061650    0.644630   -1.173158   -0.224826
H     0.015470   -2.153360   -0.629566    0.766329    0.082241    0.030472
13
* Frequency(22)  982.4829
C     1.393056    0.503515   -0.002946    0.126531   -0.141796    0.069076
C     1.198574   -0.788789    0.081623   -0.387437   -0.000623   -0.054117
N     0.048325   -1.417271    0.117681    0.322531    0.154086   -0.003517
C    -1.282092   -0.632459    0.007903    0.036214   -0.047120    0.000474
N    -1.116422    0.701838   -0.098341   -0.242979   -0.023088   -0.004652
C     0.177348    1.397607   -0.120905    0.043108    0.028987   -0.006229
O    -2.337281   -1.181085    0.022785   -0.011566    0.080343   -0.006317
O     0.192251    2.597119   -0.216966   -0.005870    0.007808    0.001279
H     2.025402   -1.481889    0.233588   -0.454043   -0.015869    0.278102
H     0.056610   -1.999409    0.982027    0.797995    0.060449   -0.010401
H    -1.991720    1.233188   -0.169825   -0.419921   -0.260023    0.010453
H     2.473474    0.781895   -0.084432    0.644630   -1.173158   -0.224826
H     0.093122   -2.145027   -0.626478    0.766329    0.082241    0.030472
13
* Frequency(22)  982.4829
C     1.402930    0.492450    0.002444    0.126531   -0.141796    0.069076
C     1.168341   -0.788838    0.077400   -0.387437   -0.000623   -0.054117
N     0.073494   -1.405247    0.117407    0.322531    0.154086   -0.003517
C    -1.279267   -0.636136    0.007940    0.036214   -0.047120    0.000474
N    -1.135383    0.700037   -0.098704   -0.242979   -0.023088   -0.004652
C     0.180712    1.399869   -0.121391    0.043108    0.028987   -0.006229
O    -2.338184   -1.174816    0.022292   -0.011566    0.080343   -0.006317
O     0.191793    2.597728   -0.216866   -0.005870    0.007808    0.001279
H     1.989972   -1.483128    0.255290   -0.454043   -0.015869    0.278102
H     0.118881   -1.994692    0.981216    0.797995    0.060449   -0.010401
H    -2.024488    1.212897   -0.169010   -0.419921   -0.260023    0.010453
H     2.523777    0.690349   -0.101976    0.644630   -1.173158   -0.224826
H     0.152922   -2.138609   -0.624100    0.766329    0.082241    0.030472
13
* Frequency(22)  982.4829
C     1.408786    0.485887    0.005641    0.126531   -0.141796    0.069076
C     1.150409   -0.788867    0.074895   -0.387437   -0.000623   -0.054117
N     0.088421   -1.398115    0.117244    0.322531    0.154086   -0.003517
C    -1.277590   -0.638317    0.007962    0.036214   -0.047120    0.000474
N    -1.146628    0.698968   -0.098919   -0.242979   -0.023088   -0.004652
C     0.182707    1.401211   -0.121680    0.043108    0.028987   -0.006229
O    -2.338719   -1.171098    0.022000   -0.011566    0.080343   -0.006317
O     0.191521    2.598089   -0.216807   -0.005870    0.007808    0.001279
H     1.968958   -1.483862    0.268161   -0.454043   -0.015869    0.278102
H     0.155813   -1.991894    0.980734    0.797995    0.060449   -0.010401
H    -2.043923    1.200863   -0.168526   -0.419921   -0.260023    0.010453
H     2.553611    0.636053   -0.112381    0.644630   -1.173158   -0.224826
H     0.188389   -2.134803   -0.622690    0.766329    0.082241    0.030472
13
* Frequency(22)  982.4829
C     1.409990    0.484538    0.006299    0.126531   -0.141796    0.069076
C     1.146723   -0.788873    0.074380   -0.387437   -0.000623   -0.054117
N     0.091490   -1.396649    0.117211    0.322531    0.154086   -0.003517
C    -1.277246   -0.638765    0.007967    0.036214   -0.047120    0.000474
N    -1.148940    0.698748   -0.098964   -0.242979   -0.023088   -0.004652
C     0.183117    1.401487   -0.121739    0.043108    0.028987   -0.006229
O    -2.338829   -1.170333    0.021940   -0.011566    0.080343   -0.006317
O     0.191465    2.598164   -0.216795   -0.005870    0.007808    0.001279
H     1.964638   -1.484013    0.270807   -0.454043   -0.015869    0.278102
H     0.163406   -1.991319    0.980636    0.797995    0.060449   -0.010401
H    -2.047918    1.198389   -0.168426   -0.419921   -0.260023    0.010453
H     2.559745    0.624891   -0.114520    0.644630   -1.173158   -0.224826
H     0.195680   -2.134021   -0.622400    0.766329    0.082241    0.030472
13
* Frequency(22)  982.4829
C     1.406411    0.488549    0.004345    0.126531   -0.141796    0.069076
C     1.157681   -0.788855    0.075911   -0.387437   -0.000623   -0.054117
N     0.082367   -1.401007    0.117310    0.322531    0.154086   -0.003517
C    -1.278270   -0.637432    0.007953    0.036214   -0.047120    0.000474
N    -1.142068    0.699401   -0.098832   -0.242979   -0.023088   -0.004652
C     0.181898    1.400667   -0.121563    0.043108    0.028987   -0.006229
O    -2.338502   -1.172606    0.022119   -0.011566    0.080343   -0.006317
O     0.191631    2.597943   -0.216831   -0.005870    0.007808    0.001279
H     1.977480   -1.483564    0.262941   -0.454043   -0.015869    0.278102
H     0.140835   -1.993029    0.980930    0.797995    0.060449   -0.010401
H    -2.036041    1.205743   -0.168722   -0.419921   -0.260023    0.010453
H     2.541512    0.658073   -0.108161    0.644630   -1.173158   -0.224826
H     0.174005   -2.136347   -0.623262    0.766329    0.082241    0.030472
13
* Frequency(22)  982.4829
C     1.398437    0.497484   -0.000008    0.126531   -0.141796    0.069076
C     1.182097   -0.788816    0.079321   -0.387437   -0.000623   -0.054117
N     0.062042   -1.410717    0.117532    0.322531    0.154086   -0.003517
C    -1.280552   -0.634463    0.007923    0.036214   -0.047120    0.000474
N    -1.126756    0.700856   -0.098539   -0.242979   -0.023088   -0.004652
C     0.179182    1.398840   -0.121170    0.043108    0.028987   -0.006229
O    -2.337773   -1.177669    0.022517   -0.011566    0.080343   -0.006317
O     0.192001    2.597451   -0.216912   -0.005870    0.007808    0.001279
H     2.006093   -1.482564    0.245416   -0.454043   -0.015869    0.278102
H     0.090548   -1.996838    0.981585    0.797995    0.060449   -0.010401
H    -2.009579    1.222129   -0.169381   -0.419921   -0.260023    0.010453
H     2.500889    0.732002   -0.093993    0.644630   -1.173158   -0.224826
H     0.125713   -2.141529   -0.625182    0.766329    0.082241    0.030472
13
* Frequency(22)  982.4829
C     1.386933    0.510377   -0.006289    0.126531   -0.141796    0.069076
C     1.217323   -0.788759    0.084242   -0.387437   -0.000623   -0.054117
N     0.032717   -1.424727    0.117851    0.322531    0.154086   -0.003517
C    -1.283845   -0.630179    0.007880    0.036214   -0.047120    0.000474
N    -1.104664    0.702956   -0.098116   -0.242979   -0.023088   -0.004652
C     0.175262    1.396205   -0.120604    0.043108    0.028987   -0.006229
O    -2.336722   -1.184973    0.023091   -0.011566    0.080343   -0.006317
O     0.192535    2.596741   -0.217028   -0.005870    0.007808    0.001279
H     2.047375   -1.481121    0.220130   -0.454043   -0.015869    0.278102
H     0.017993   -2.002334    0.982531    0.797995    0.060449   -0.010401
H    -1.971399    1.245771   -0.170331   -0.419921   -0.260023    0.010453
H     2.442278    0.838668   -0.073552    0.644630   -1.173158   -0.224826
H     0.056037   -2.149007   -0.627953    0.766329    0.082241    0.030472
13
* Frequency(22)  982.4829
C     1.373144    0.525829   -0.013816    0.126531   -0.141796    0.069076
C     1.259543   -0.788691    0.090139   -0.387437   -0.000623   -0.054117
N    -0.002430   -1.441518    0.118235    0.322531    0.154086   -0.003517
C    -1.287791   -0.625044    0.007828    0.036214   -0.047120    0.000474
N    -1.078185    0.705472   -0.097609   -0.242979   -0.023088   -0.004652
C     0.170565    1.393046   -0.119925    0.043108    0.028987   -0.006229
O    -2.335461   -1.193729    0.023779   -0.011566    0.080343   -0.006317
O     0.193175    2.595890   -0.217168   -0.005870    0.007808    0.001279
H     2.096853   -1.479392    0.189824   -0.454043   -0.015869    0.278102
H    -0.068968   -2.008922    0.983664    0.797995    0.060449   -0.010401
H    -1.925639    1.274107   -0.171470   -0.419921   -0.260023    0.010453
H     2.372031    0.966511   -0.049052    0.644630   -1.173158   -0.224826
H    -0.027472   -2.157969   -0.631273    0.766329    0.082241    0.030472
13
* Frequency(22)  982.4829
C     1.358566    0.542166   -0.021775    0.126531   -0.141796    0.069076
C     1.304182   -0.788620    0.096374   -0.387437   -0.000623   -0.054117
N    -0.039591   -1.459272    0.118640    0.322531    0.154086   -0.003517
C    -1.291964   -0.619615    0.007774    0.036214   -0.047120    0.000474
N    -1.050190    0.708132   -0.097073   -0.242979   -0.023088   -0.004652
C     0.165598    1.389706   -0.119207    0.043108    0.028987   -0.006229
O    -2.334129   -1.202986    0.024507   -0.011566    0.080343   -0.006317
O     0.193851    2.594990   -0.217315   -0.005870    0.007808    0.001279
H     2.149167   -1.477564    0.157783   -0.454043   -0.015869    0.278102
H    -0.160910   -2.015886    0.984863    0.797995    0.060449   -0.010401
H    -1.877257    1.304065   -0.172675   -0.419921   -0.260023    0.010453
H     2.297759    1.101677   -0.023148    0.644630   -1.173158   -0.224826
H    -0.115766   -2.167444   -0.634784    0.766329    0.082241    0.030472
13
* Frequency(22)  982.4829
C     1.344777    0.557618   -0.029302    0.126531   -0.141796    0.069076
C     1.346403   -0.788552    0.102272   -0.387437   -0.000623   -0.054117
N    -0.074738   -1.476063    0.119023    0.322531    0.154086   -0.003517
C    -1.295910   -0.614480    0.007722    0.036214   -0.047120    0.000474
N    -1.023712    0.710648   -0.096566   -0.242979   -0.023088   -0.004652
C     0.160900    1.386547   -0.118529    0.043108    0.028987   -0.006229
O    -2.332868   -1.211741    0.025195   -0.011566    0.080343   -0.006317
O     0.194491    2.594140   -0.217454   -0.005870    0.007808    0.001279
H     2.198645   -1.475834    0.127477   -0.454043   -0.015869    0.278102
H    -0.247870   -2.022474    0.985996    0.797995    0.060449   -0.010401
H    -1.831497    1.332401   -0.173814   -0.419921   -0.260023    0.010453
H     2.227511    1.229521    0.001352    0.644630   -1.173158   -0.224826
H    -0.199275   -2.176406   -0.638105    0.766329    0.082241    0.030472
13
* Frequency(22)  982.4829
C     1.333273    0.570510   -0.035583    0.126531   -0.141796    0.069076
C     1.381629   -0.788495    0.107192   -0.387437   -0.000623   -0.054117
N    -0.104064   -1.490073    0.119343    0.322531    0.154086   -0.003517
C    -1.299203   -0.610196    0.007679    0.036214   -0.047120    0.000474
N    -1.001620    0.712747   -0.096143   -0.242979   -0.023088   -0.004652
C     0.156981    1.383912   -0.117962    0.043108    0.028987   -0.006229
O    -2.331817   -1.219046    0.025770   -0.011566    0.080343   -0.006317
O     0.195024    2.593430   -0.217570   -0.005870    0.007808    0.001279
H     2.239928   -1.474391    0.102191   -0.454043   -0.015869    0.278102
H    -0.320425   -2.027970    0.986942    0.797995    0.060449   -0.010401
H    -1.793317    1.356043   -0.174764   -0.419921   -0.260023    0.010453
H     2.168900    1.336186    0.021793    0.644630   -1.173158   -0.224826
H    -0.268951   -2.183884   -0.640875    0.766329    0.082241    0.030472
13
* Frequency(22)  982.4829
C     1.325299    0.579446   -0.039936    0.126531   -0.141796    0.069076
C     1.406044   -0.788456    0.110602   -0.387437   -0.000623   -0.054117
N    -0.124389   -1.499783    0.119564    0.322531    0.154086   -0.003517
C    -1.301485   -0.607227    0.007649    0.036214   -0.047120    0.000474
N    -0.986308    0.714202   -0.095850   -0.242979   -0.023088   -0.004652
C     0.154264    1.382085   -0.117570    0.043108    0.028987   -0.006229
O    -2.331088   -1.224109    0.026168   -0.011566    0.080343   -0.006317
O     0.195394    2.592938   -0.217651   -0.005870    0.007808    0.001279
H     2.268540   -1.473391    0.084666   -0.454043   -0.015869    0.278102
H    -0.370712   -2.031779    0.987597    0.797995    0.060449   -0.010401
H    -1.766855    1.372429   -0.175423   -0.419921   -0.260023    0.010453
H     2.128278    1.410115    0.035961    0.644630   -1.173158   -0.224826
H    -0.317243   -2.189066   -0.642795    0.766329    0.082241    0.030472
13
* Frequency(22)  982.4829
C     1.321720    0.583457   -0.041889    0.126531   -0.141796    0.069076
C     1.417003   -0.788438    0.112133   -0.387437   -0.000623   -0.054117
N    -0.133511   -1.504141    0.119664    0.322531    0.154086   -0.003517
C    -1.302509   -0.605894    0.007636    0.036214   -0.047120    0.000474
N    -0.979436    0.714855   -0.095719   -0.242979   -0.023088   -0.004652
C     0.153045    1.381265   -0.117394    0.043108    0.028987   -0.006229
O    -2.330761   -1.226381    0.026347   -0.011566    0.080343   -0.006317
O     0.195560    2.592717   -0.217687   -0.005870    0.007808    0.001279
H     2.281382   -1.472942    0.076800   -0.454043   -0.015869    0.278102
H    -0.393283   -2.033489    0.987891    0.797995    0.060449   -0.010401
H    -1.754977    1.379783   -0.175719   -0.419921   -0.260023    0.010453
H     2.110045    1.443297    0.042320    0.644630   -1.173158   -0.224826
H    -0.338918   -2.191392   -0.643657    0.766329    0.082241    0.030472
13
* Frequency(22)  982.4829
C     1.322924    0.582107   -0.041232    0.126531   -0.141796    0.069076
C     1.413316   -0.788444    0.111618   -0.387437   -0.000623   -0.054117
N    -0.130442   -1.502675    0.119630    0.322531    0.154086   -0.003517
C    -1.302165   -0.606342    0.007640    0.036214   -0.047120    0.000474
N    -0.981748    0.714635   -0.095763   -0.242979   -0.023088   -0.004652
C     0.153455    1.381541   -0.117453    0.043108    0.028987   -0.006229
O    -2.330871   -1.225617    0.026286   -0.011566    0.080343   -0.006317
O     0.195505    2.592791   -0.217675   -0.005870    0.007808    0.001279
H     2.277062   -1.473093    0.079446   -0.454043   -0.015869    0.278102
H    -0.385690   -2.032914    0.987792    0.797995    0.060449   -0.010401
H    -1.758973    1.377309   -0.175619   -0.419921   -0.260023    0.010453
H     2.116178    1.432135    0.040181    0.644630   -1.173158   -0.224826
H    -0.331627   -2.190610   -0.643367    0.766329    0.082241    0.030472
13
* Frequency(22)  982.4829
C     1.328780    0.575545   -0.038035    0.126531   -0.141796    0.069076
C     1.395385   -0.788473    0.109114   -0.387437   -0.000623   -0.054117
N    -0.115515   -1.495544    0.119468    0.322531    0.154086   -0.003517
C    -1.300489   -0.608523    0.007662    0.036214   -0.047120    0.000474
N    -0.992993    0.713567   -0.095978   -0.242979   -0.023088   -0.004652
C     0.155450    1.382883   -0.117741    0.043108    0.028987   -0.006229
O    -2.331406   -1.221898    0.025994   -0.011566    0.080343   -0.006317
O     0.195233    2.593153   -0.217616   -0.005870    0.007808    0.001279
H     2.256048   -1.473828    0.092317   -0.454043   -0.015869    0.278102
H    -0.348758   -2.030116    0.987311    0.797995    0.060449   -0.010401
H    -1.778408    1.365275   -0.175135   -0.419921   -0.260023    0.010453
H     2.146013    1.377839    0.029776    0.644630   -1.173158   -0.224826
H    -0.296160   -2.186804   -0.641957    0.766329    0.082241    0.030472
13
* Frequency(22)  982.4829
C     1.338654    0.564480   -0.032645    0.126531   -0.141796    0.069076
C     1.365152   -0.788521    0.104891   -0.387437   -0.000623   -0.054117
N    -0.090347   -1.483520    0.119193    0.322531    0.154086   -0.003517
C    -1.297663   -0.612200    0.007699    0.036214   -0.047120    0.000474
N    -1.011954    0.711765   -0.096341   -0.242979   -0.023088   -0.004652
C     0.158814    1.385145   -0.118227    0.043108    0.028987   -0.006229
O    -2.332309   -1.215629    0.025501   -0.011566    0.080343   -0.006317
O     0.194775    2.593762   -0.217516   -0.005870    0.007808    0.001279
H     2.220618   -1.475066    0.114019   -0.454043   -0.015869    0.278102
H    -0.286487   -2.025399    0.986499    0.797995    0.060449   -0.010401
H    -1.811176    1.344984   -0.174320   -0.419921   -0.260023    0.010453
H     2.196316    1.286293    0.012232    0.644630   -1.173158   -0.224826
H    -0.236360   -2.180386   -0.639579    0.766329    0.082241    0.030472
13
* Frequency(22)  982.4829
C     1.351475    0.550112   -0.025646    0.126531   -0.141796    0.069076
C     1.325893   -0.788585    0.099407   -0.387437   -0.000623   -0.054117
N    -0.057665   -1.467906    0.118837    0.322531    0.154086   -0.003517
C    -1.293993   -0.616975    0.007747    0.036214   -0.047120    0.000474
N    -1.036575    0.709426   -0.096813   -0.242979   -0.023088   -0.004652
C     0.163182    1.388082   -0.118858    0.043108    0.028987   -0.006229
O    -2.333481   -1.207488    0.024861   -0.011566    0.080343   -0.006317
O     0.194180    2.594553   -0.217386   -0.005870    0.007808    0.001279
H     2.174610   -1.476674    0.142199   -0.454043   -0.015869    0.278102
H    -0.205627   -2.019274    0.985445    0.797995    0.060449   -0.010401
H    -1.853726    1.318636   -0.173260   -0.419921   -0.260023    0.010453
H     2.261636    1.167417   -0.010550    0.644630   -1.173158   -0.224826
H    -0.158708   -2.172053   -0.636492    0.766329    0.082241    0.030472
13
* Frequency(22)  982.4829
C     1.365855    0.533997   -0.017795    0.126531   -0.141796    0.069076
C     1.281863   -0.788655    0.093257   -0.387437   -0.000623   -0.054117
N    -0.021011   -1.450395    0.118437    0.322531    0.154086   -0.003517
C    -1.289878   -0.622329    0.007801    0.036214   -0.047120    0.000474
N    -1.064188    0.706802   -0.097341   -0.242979   -0.023088   -0.004652
C     0.168081    1.391376   -0.119566    0.043108    0.028987   -0.006229
O    -2.334795   -1.198357    0.024143   -0.011566    0.080343   -0.006317
O     0.193513    2.595440   -0.217241   -0.005870    0.007808    0.001279
H     2.123010   -1.478478    0.173803   -0.454043   -0.015869    0.278102
H    -0.114939   -2.012404    0.984263    0.797995    0.060449   -0.010401
H    -1.901448    1.289086   -0.172072   -0.419921   -0.260023    0.010453
H     2.334895    1.034094   -0.036100    0.644630   -1.173158   -0.224826
H    -0.071619   -2.162707   -0.633029    0.766329    0.082241    0.030472
