
                                 *****************
                                 * O   R   C   A *
                                 *****************

                                            #,                                       
                                            ###                                      
                                            ####                                     
                                            #####                                    
                                            ######                                   
                                           ########,                                 
                                     ,,################,,,,,                         
                               ,,#################################,,                 
                          ,,##########################################,,             
                       ,#########################################, ''#####,          
                    ,#############################################,,   '####,        
                  ,##################################################,,,,####,       
                ,###########''''           ''''###############################       
              ,#####''   ,,,,##########,,,,          '''####'''          '####       
            ,##' ,,,,###########################,,,                        '##       
           ' ,,###''''                  '''############,,,                           
         ,,##''                                '''############,,,,        ,,,,,,###''
      ,#''                                            '''#######################'''  
     '                                                          ''''####''''         
             ,#######,   #######,   ,#######,      ##                                
            ,#'     '#,  ##    ##  ,#'     '#,    #''#        ,####,    ,#,          
            ##       ##  ##   ,#'  ##            #'  '#       #'       ,# #          
            ##       ##  #######   ##           ,######,      #####,      #          
            '#,     ,#'  ##    ##  '#,     ,#' ,#      #,     #,   #      #          
             '#######'   ##     ##  '#######'  #'      '#     '####' #    #          



                #########################################################
                #                        -***-                          #
                #          Department of theory and spectroscopy        #
                #                                                       #
                #                      Frank Neese                      #
                #                                                       #
                #     Directorship, Architecture, Infrastructure        #
                #                    SHARK, DRIVERS                     #
                #        Core code/Algorithms in most modules           #
                #                                                       #
                #        Max Planck Institute fuer Kohlenforschung      #
                #                Kaiser Wilhelm Platz 1                 #
                #                 D-45470 Muelheim/Ruhr                 #
                #                      Germany                          #
                #                                                       #
                #                  All rights reserved                  #
                #                        -***-                          #
                #########################################################


                         Program Version 6.1.0  -  RELEASE   -


 With contributions from (in alphabetic order):
[Max-Planck-Institut fuer Kohlenforschung]                               
  Daniel Aravena         : Magnetic Suceptibility                        
  Michael Atanasov       : Ab Initio Ligand Field Theory (pilot matlab implementation)
  Alexander A. Auer      : GIAO ZORA, VPT2 properties, NMR spectrum      
  Ute Becker             : All parallelization in ORCA, NUMFREQ, NUMCALC 
  Giovanni Bistoni       : ED, misc. LED, open-shell LED, HFLD           
  Dmytro Bykov           : pre 5.0 version of the SCF Hessian            
  Marcos Casanova-P??ez   : Triplet and SCS-CIS(D). UHF-(DLPNO)-IP/EA/STEOM-CCSD. UHF-CVS-IP/STEOM-CCSD   
  Vijay G. Chilkuri      : MRCI spin determinant printing, contributions to CSF-ICE 
  Pauline Colinet        : FMM embedding                                 
  Dipayan Datta          : RHF DLPNO-CCSD density                        
  Achintya Kumar Dutta   : EOM-CC, STEOM-CC                              
  Nicolas Foglia         : Exact transition moments, OPA infrastructure, MCD improvements    
  Dmitry Ganyushin       : Spin-Orbit,Spin-Spin,Magnetic field MRCI      
  Miquel Garcia-Rates    : C-PCM and meta-GGA Hessian, CCSD/C-PCM, Gaussian charge scheme 
  Tiago L. C. Gouveia    : GS-ROHF, GS-ROCIS                             
  Yang Guo               : DLPNO-NEVPT2, F12-NEVPT2, CIM, IAO-localization        
  Andreas Hansen         : Spin unrestricted coupled pair/coupled cluster methods 
  Ingolf Harden          : AUTO-CI MPn and infrastructure                
  Benjamin Helmich-Paris : MC-RPA, TRAH-(SCF,CASSCF), AVAS, COSX integrals, SCF dyn. polar., MC-PDFT, srDFT 
  Lee Huntington         : MR-EOM, pCC                                   
  Robert Izsak           : Overlap fitted RIJCOSX, COSX-SCS-MP3, EOM     
  Riya Kayal             : Wick's Theorem for AUTO-CI, AUTO-CI UHF-CCSDT 
  Emily Kempfer          : AUTO-CI RHF CISDT and CCSDT, approximate NEVPT4
  Christian Kollmar      : KDIIS, OOCD, Brueckner-CCSD(T), CCSD density, CASPT2, CASPT2-K, improved NEVPT2 
  Axel Koslowski         : Symmetry handling                             
  Simone Kossmann        : meta-GGA functionals, TD-DFT gradient, OOMP2, (MP2 Hessian; deprecated post 5.0) 
  Lucas Lang             : DCDCAS, Hyperfine gauge corrections, ICE-SOC+SSC
  Marvin Lechner         : AUTO-CI (C++ implementation), FIC-MRCC        
  Spencer Leger          : CASSCF response                               
  Dagmar Lenk            : GEPOL surface, SMD, ORCA-2-JSON               
  Dimitrios Liakos       : Extrapolation schemes; Compound Job, Property file
  Dimitrios Manganas     : Further ROCIS development; embedding schemes. LFT, Crystal Embedding 
  Dimitrios Pantazis     : SARC Basis sets                               
  Anastasios Papadopoulos: AUTO-CI, single reference methods and gradients 
  Taras Petrenko         : pre 6.0 DFT Hessian and TD-DFT gradient,  ECA, NRVS 
  Petra Pikulova         : Analytic Raman intensities                    
  Peter Pinski           : DLPNO-MP2, DLPNO-MP2 Gradient                 
  Shashank Vittal Rao    : ES-AILFT, MagRelax                            
  Christoph Reimann      : Effective Core Potentials                     
  Marius Retegan         : Local ZFS, SOC                                
  Christoph Riplinger    : Optimizer, TS searches, QM/MM, DLPNO-CCSD(T), (RO)-DLPNO pert. Triples 
  Michael Roemelt        : Original ROCIS implementation, recursive CI coupling coefficients
  Masaaki Saitow         : Open-shell DLPNO-CCSD energy and density      
  Barbara Sandhoefer     : DKH picture change effects                    
  Yorick L. A. Schmerwitz: GMF and freeze-and-release deltaSCF, NEB S-IDPP initial path                    
  Kantharuban Sivalingam : CASSCF convergence/infrastructure, NEVPT2, NEVPT3, NEVPT4(SD), FIC-MRCI and CEPA variants
  Bernardo de Souza      : ESD, SOC TD-DFT                               
  Georgi L. Stoychev     : AutoAux, RI-MP2 NMR, DLPNO-MP2 response, X2C  
  Van Anh Tran           : RI-MP2 g-tensors                              
  Willem Van den Heuvel  : Paramagnetic NMR                              
  Zikuan Wang            : NOTCH, Electric field optimization            
  Frank Wennmohs         : Technical directorship and infrastructure     
  Hang Xu                : AUTO-CI-Response properties                   
                                                                         
[FACCTs GmbH]                                                            
  Markus Bursch, Nicolas Foglia, Miquel Garcia-Rates, Ingolf Harden, Hagen Neugebauer, Anastasios Papadopoulos, 
  Christoph Riplinger, Bernardo de Souza, Georgi L. Stoychev                                                    
                                                                 
  APM, various basis sets, CI-OPT, improved COSX, DLPNO-Multilevel,           
  DOCKER, DRACO, updates on ESD, Fragmentator, GOAT, IRC, LR-CPCM, L-BFGS, MBIS, meta-GGA TD-DFT gradient, ML-optimized integration grids, 
  MM, NACMEs, nearIR, NEB, NEB-TS, NL-DFT gradient (VV10), 2- and 3-layer-ONIOM, interface openCOSMO-RS, QMMM,   
  Crystal-QMMM, RESP, rigid body optimization, SF, symmetry and pop. for TD-DFT, various functionals, SOLVATOR                                   
                                                                         
[Other institutions]                                                     
  V. Asgeirsson          : NEB                                           
  Christoph Bannwarth    : sTDA-DFT, sTD-DFT, PBEh-3c, B97-3c, D3        
  Giovanni Bistoni       : ETS/NOCV, ADLD/ADEX, COVALED                  
  Martin Brehm           : Molecular dynamics                            
  Ronald Cardenas        : ETS/NOCV                                      
  Martina Colucci        : COVALED                                       
  Sebastian Ehlert       : rSCAN, r2SCAN, r2SCAN-3c, D4, dhf basis sets  
  Marvin Friede          : D4 for Fr, Ra, Ac-Lr                          
  Lars Goerigk           : TD-DFT with DH, B97 family of functionals     
  Stefan Grimme          : VdW corrections, initial TS optimization, DFT functionals, gCP, sTDA/sTD-DF 
  Waldemar Hujo          : DFT-NL                                        
  H. Jonsson             : NEB                                           
  Holger Kruse           : gCP                                           
  Marcel Mueller         : wB97X-3c, vDZP basis set                      
  Hagen Neugebauer       : wr2SCAN, Native XTB                           
  Gianluca Regni         : ADLD/ADEX                                     
  Tobias Risthaus        : pre 6.0 range-separated hybrid DFT and stability analysis
  Lukas Wittmann         : regularized MP2, r2SCAN double-hybrids, wr2SCAN        
                                                                         
We gratefully acknowledge several colleagues who have allowed us to      
interface, adapt or use parts of their codes:                            
  Ed Valeev, F. Pavosevic, A. Kumar             : LibInt (2-el integral package), F12 methods 
  Garnet Chan, S. Sharma, J. Yang, R. Olivares  : DMRG                   
  Ulf Ekstrom                                   : XCFun DFT Library      
  Mihaly Kallay                                 : mrcc  (arbitrary order and MRCC methods)
  Frank Weinhold                                : gennbo (NPA and NBO analysis)           
  Simon Mueller                                 : openCOSMO-RS                            
  Christopher J. Cramer and Donald G. Truhlar   : smd solvation model                     
  S Lehtola, MJT Oliveira, MAL Marques          : LibXC Library                           
  Liviu Ungur et al                             : ANISO software                          


 Your calculation uses the libint2 library for the computation of 2-el integrals
 For citations please refer to: http://libint.valeyev.net

 Your ORCA version has been built with support for libXC version: 7.0.0
 For citations please refer to: https://libxc.gitlab.io

 This ORCA versions uses:
   CBLAS   interface :  Fast vector & matrix operations
   LAPACKE interface :  Fast linear algebra routines
   Shared memory     :  Shared parallel matrices


  ***********************************
  * Starting time: Tue Jul 15 18:23:50 2025
  * Host name:     VITOR
  * Process ID:    6412
  * Working dir.:  C:\Orca\test_run\AcOH\AcOH_normal
  ***********************************

Warning: RI is on but no J-basis has been assigned. Assigning Def2/J (nothing to worry about!)
================================================================================

----- Orbital basis set information -----
Your calculation utilizes the basis: def2-SVP
   F. Weigend and R. Ahlrichs, Phys. Chem. Chem. Phys. 7, 3297 (2005).

----- AuxJ basis set information -----
Your calculation utilizes the auxiliary basis: def2/J
   H-Rn: F. Weigend, Phys. Chem. Chem. Phys. 8, 1057 (2006).
   Fr-Lr: K. Eichkorn, F. Weigend, O. Treutler, R. Ahlrichs; Theor. Chem. Acc. 97, 119 (1997).

================================================================================
                                        WARNINGS
                       Please study these warnings very carefully!
================================================================================


WARNING: Geometry Optimization
  ===> : Switching off AutoStart
         For restart on a previous wavefunction, please use MOREAD

================================================================================
                                       INPUT FILE
================================================================================
NAME = .\AcOH.inp
|  1> !B3LYP DEF2-SVP OPT FREQ

|  2> * XYZ 0 1

|  3> C         -8.23508        1.75252       -0.00446

|  4> C         -6.80437        2.18360        0.03487

|  5> H         -8.30301        0.65382       -0.15041

|  6> H         -8.75566        2.25995       -0.84350

|  7> H         -8.73273        2.02013        0.95115

|  8> O         -6.52860        3.36373        0.18904

|  9> O         -5.82021        1.26961       -0.09983

| 10> H         -4.88856        1.53058       -0.07686

| 11> **                         ****END OF INPUT****
================================================================================

                       *****************************
                       * Geometry Optimization Run *
                       *****************************

Geometry optimization settings:
Update method            Update   .... BFGS
Choice of coordinates    CoordSys .... (2022) Redundant Internals
Initial Hessian          InHess   .... Almloef's Model
Max. no of cycles        MaxIter  .... 50

Convergence Tolerances:
Energy Change            TolE     ....  5.0000e-06 Eh
Max. Gradient            TolMAXG  ....  3.0000e-04 Eh/bohr
RMS Gradient             TolRMSG  ....  1.0000e-04 Eh/bohr
Max. Displacement        TolMAXD  ....  4.0000e-03 bohr
RMS Displacement         TolRMSD  ....  2.0000e-03 bohr
Strict Convergence                .... False

------------------------------------------------------------------------------
                        ORCA OPTIMIZATION COORDINATE SETUP
------------------------------------------------------------------------------

The optimization will be done in redundant internal coordinates (2022)
Making redundant internal coordinates   ...  (2022 redundants) done
Evaluating the initial hessian          ...  (Almloef) done
Evaluating the coordinates              ...  done
Calculating the B-matrix                .... done
Calculating the G-matrix                .... done
The number of degrees of freedom        ....   24

    -----------------------------------------------------------------
                    Redundant Internal Coordinates


    -----------------------------------------------------------------
         Definition                    Initial Value    Approx d2E/dq
    -----------------------------------------------------------------
      1. B(C   1,C   0)                  1.4948         0.425207   
      2. B(H   2,C   0)                  1.1104         0.334061   
      3. B(H   3,C   0)                  1.1102         0.334383   
      4. B(H   4,C   0)                  1.1102         0.334391   
      5. B(O   5,C   1)                  1.2217         1.038496   
      6. B(O   6,C   1)                  1.3498         0.648535   
      7. B(H   7,O   6)                  0.9678         0.505299   
      8. A(C   1,C   0,H   2)          110.3259         0.327234   
      9. A(C   1,C   0,H   4)          109.6876         0.327287   
     10. A(H   2,C   0,H   4)          108.9185         0.284140   
     11. A(C   1,C   0,H   3)          109.6878         0.327286   
     12. A(H   3,C   0,H   4)          109.2796         0.284183   
     13. A(H   2,C   0,H   3)          108.9186         0.284139   
     14. A(C   0,C   1,O   5)          119.8651         0.442138   
     15. A(O   5,C   1,O   6)          120.1383         0.474346   
     16. A(C   0,C   1,O   6)          119.9966         0.406442   
     17. A(C   1,O   6,H   7)          121.1254         0.371162   
     18. D(O   5,C   1,C   0,H   3)     60.0154         0.013360   
     19. D(O   5,C   1,C   0,H   2)    179.9996         0.013360   
     20. D(O   6,C   1,C   0,H   2)     -0.0003         0.013360   
     21. D(O   6,C   1,C   0,H   3)   -119.9845         0.013360   
     22. D(O   5,C   1,C   0,H   4)    -60.0163         0.013360   
     23. D(H   7,O   6,C   1,O   5)     -0.0001         0.031073   
     24. D(H   7,O   6,C   1,C   0)    179.9998         0.031073   
    -----------------------------------------------------------------

Number of atoms                         .... 8
Number of degrees of freedom            .... 24


         *************************************************************
         *                GEOMETRY OPTIMIZATION CYCLE   1            *
         *************************************************************
---------------------------------
CARTESIAN COORDINATES (ANGSTROEM)
---------------------------------
  C     -8.235080    1.752520   -0.004460
  C     -6.804370    2.183600    0.034870
  H     -8.303010    0.653820   -0.150410
  H     -8.755660    2.259950   -0.843500
  H     -8.732730    2.020130    0.951150
  O     -6.528600    3.363730    0.189040
  O     -5.820210    1.269610   -0.099830
  H     -4.888560    1.530580   -0.076860

----------------------------
CARTESIAN COORDINATES (A.U.)
----------------------------
  NO LB      ZA    FRAG     MASS         X           Y           Z
   0 C     6.0000    0    12.011  -15.562046    3.311783   -0.008428
   1 C     6.0000    0    12.011  -12.858396    4.126406    0.065895
   2 H     1.0000    0     1.008  -15.690415    1.235541   -0.284234
   3 H     1.0000    0     1.008  -16.545800    4.270687   -1.593984
   4 H     1.0000    0     1.008  -16.502468    3.817492    1.797413
   5 O     8.0000    0    15.999  -12.337266    6.356528    0.357234
   6 O     8.0000    0    15.999  -10.998603    2.399215   -0.188651
   7 H     1.0000    0     1.008   -9.238040    2.892377   -0.145244

--------------------------------
INTERNAL COORDINATES (ANGSTROEM)
--------------------------------
 C      0   0   0     0.000000000000     0.00000000     0.00000000
 C      1   0   0     1.494760154473     0.00000000     0.00000000
 H      1   2   0     1.110431257395   110.32585013     0.00000000
 H      1   2   3     1.110169745084   109.68778877   240.01575460
 H      1   2   3     1.110162648759   109.68762061   119.98408548
 O      2   1   3     1.221689117042   119.86512789   179.99964557
 O      2   1   3     1.349849145534   119.99661076     0.00000000
 H      7   2   1     0.967783387076   121.12537532   179.99978854

---------------------------
INTERNAL COORDINATES (A.U.)
---------------------------
 C      0   0   0     0.000000000000     0.00000000     0.00000000
 C      1   0   0     2.824687327852     0.00000000     0.00000000
 H      1   2   0     2.098410967023   110.32585013     0.00000000
 H      1   2   3     2.097916780374   109.68778877   240.01575460
 H      1   2   3     2.097903370263   109.68762061   119.98408548
 O      2   1   3     2.308657852002   119.86512789   179.99964557
 O      2   1   3     2.550845207168   119.99661076     0.00000000
 H      7   2   1     1.828845558532   121.12537532   179.99978854

---------------------
BASIS SET INFORMATION
---------------------
There are 3 groups of distinct atoms

 Group   1 Type C   : 7s4p1d contracted to 3s2p1d pattern {511/31/1}
 Group   2 Type H   : 4s1p contracted to 2s1p pattern {31/1}
 Group   3 Type O   : 7s4p1d contracted to 3s2p1d pattern {511/31/1}

Atom   0C    basis set group =>   1
Atom   1C    basis set group =>   1
Atom   2H    basis set group =>   2
Atom   3H    basis set group =>   2
Atom   4H    basis set group =>   2
Atom   5O    basis set group =>   3
Atom   6O    basis set group =>   3
Atom   7H    basis set group =>   2
---------------------------------
AUXILIARY/J BASIS SET INFORMATION
---------------------------------
There are 3 groups of distinct atoms

 Group   1 Type C   : 12s5p4d2f1g contracted to 6s4p3d1f1g pattern {711111/2111/211/2/1}
 Group   2 Type H   : 5s2p1d contracted to 3s1p1d pattern {311/2/1}
 Group   3 Type O   : 12s5p4d2f1g contracted to 6s4p3d1f1g pattern {711111/2111/211/2/1}

Atom   0C    basis set group =>   1
Atom   1C    basis set group =>   1
Atom   2H    basis set group =>   2
Atom   3H    basis set group =>   2
Atom   4H    basis set group =>   2
Atom   5O    basis set group =>   3
Atom   6O    basis set group =>   3
Atom   7H    basis set group =>   2
------------------------------------------------------------------------------
                             ORCA STARTUP CALCULATIONS
                           -- RI-GTO INTEGRALS CHOSEN --
------------------------------------------------------------------------------
------------------------------------------------------------------------------
                   ___                                                        
                  /   \      - P O W E R E D   B Y -                         
                 /     \                                                     
                 |  |  |   _    _      __       _____    __    __             
                 |  |  |  | |  | |    /  \     |  _  \  |  |  /  |          
                  \  \/   | |  | |   /    \    | | | |  |  | /  /          
                 / \  \   | |__| |  /  /\  \   | |_| |  |  |/  /          
                |  |  |   |  __  | /  /__\  \  |    /   |      \           
                |  |  |   | |  | | |   __   |  |    \   |  |\   \          
                \     /   | |  | | |  |  |  |  | |\  \  |  | \   \       
                 \___/    |_|  |_| |__|  |__|  |_| \__\ |__|  \__/        
                                                                              
                      - O R C A' S   B I G   F R I E N D -                    
                                      &                                       
                       - I N T E G R A L  F E E D E R -                       
                                                                              
 v1 FN, 2020, v2 2021, v3 2022-2024                                           
------------------------------------------------------------------------------


----------------------
SHARK INTEGRAL PACKAGE
----------------------

Number of atoms                             ...      8
Number of basis functions                   ...     76
Number of shells                            ...     36
Maximum angular momentum                    ...      2
Integral batch strategy                     ... SHARK/LIBINT Hybrid
RI-J (if used) integral strategy            ... SPLIT-RIJ (Revised 2003 algorithm where possible)
Printlevel                                  ...      1
Contraction scheme used                     ... SEGMENTED contraction
Prescreening option                         ... SCHWARTZ
   Thresh                                   ... 2.500e-11
   Tcut                                     ... 2.500e-12
   Tpresel                                  ... 2.500e-12 
Coulomb Range Separation                    ... NOT USED
Exchange Range Separation                   ... NOT USED
Multipole approximations                    ... NOT USED
Finite Nucleus Model                        ... NOT USED
CABS basis                                  ... NOT available
Auxiliary Coulomb fitting basis             ... AVAILABLE
   # of basis functions in Aux-J            ...    240
   # of shells in Aux-J                     ...     80
   Maximum angular momentum in Aux-J        ...      4
Auxiliary J/K fitting basis                 ... NOT available
Auxiliary Correlation fitting basis         ... NOT available
Auxiliary 'external' fitting basis          ... NOT available

Checking pre-screening integrals            ... done (  0.0 sec) Dimension = 36
   => SHARK Basis and OBASIS are compatible. Storing Pre-screening
Shell pair information
Shell pair cut-off parameter TPreSel        ...   2.5e-12
Total number of shell pairs                 ...       666
Shell pairs after pre-screening             ...       663
Total number of primitive shell pairs       ...      2410
Primitive shell pairs kept                  ...      1981
          la=0 lb=0:    207 shell pairs
          la=1 lb=0:    240 shell pairs
          la=1 lb=1:     78 shell pairs
          la=2 lb=0:     80 shell pairs
          la=2 lb=1:     48 shell pairs
          la=2 lb=2:     10 shell pairs

Checking whether 4 symmetric matrices of dimension 76 fit in memory
:Max Core in MB      =   4096.00
 MB in use           =      3.92
 MB left             =   4092.08
 MB needed           =      0.09
 Data fit in memory  = YES
Calculating RI/J V-Matrix + Cholesky decomp.... done (  0.0 sec)
Calculating Nuclear repulsion               ... done (  0.0 sec) ENN=    120.306741731727 Eh

Diagonalization of the overlap matrix:
Smallest eigenvalue                        ... 3.443e-03
Time for diagonalization                   ...    0.008 sec
Threshold for overlap eigenvalues          ... 1.000e-07
Number of eigenvalues below threshold      ... 0
Time for construction of square roots      ...    0.002 sec
Total time needed                          ...    0.010 sec

-------------------
DFT GRID GENERATION
-------------------

General Integration Accuracy     IntAcc      ... 4.388
Radial Grid Type                 RadialGrid  ... OptM3 with GC (2021)
Angular Grid (max. ang.)         AngularGrid ... 4 (Lebedev-302)
Angular grid pruning method      GridPruning ... 4 (adaptive)
Weight generation scheme         WeightScheme... mBecke (2022)
Basis function cutoff            BFCut       ... 1.0000e-11
Integration weight cutoff        WCut        ... 1.0000e-14
Partially contracted basis set               ... off
Rotationally invariant grid construction     ... off
Angular grids for H and He will be reduced by one unit

Total number of grid points                  ...    37401
Total number of batches                      ...      588
Average number of points per batch           ...       63
Average number of grid points per atom       ...     4675

--------------------
COSX GRID GENERATION
--------------------

GRIDX 1
-------
General Integration Accuracy     IntAcc      ... 3.816
Radial Grid Type                 RadialGrid  ... OptM3 with GC (2021)
Angular Grid (max. ang.)         AngularGrid ... 1 (Lebedev-50)
Angular grid pruning method      GridPruning ... 4 (adaptive)
Weight generation scheme         WeightScheme... mBecke (2022)
Basis function cutoff            BFCut       ... 1.0000e-11
Integration weight cutoff        WCut        ... 1.0000e-14
Partially contracted basis set               ... on
Rotationally invariant grid construction     ... off
Angular grids for H and He will be reduced by one unit

Total number of grid points                  ...     4802
Total number of batches                      ...       42
Average number of points per batch           ...      114
Average number of grid points per atom       ...      600
UseSFitting                                  ... on

GRIDX 2
-------
General Integration Accuracy     IntAcc      ... 4.020
Radial Grid Type                 RadialGrid  ... OptM3 with GC (2021)
Angular Grid (max. ang.)         AngularGrid ... 2 (Lebedev-110)
Angular grid pruning method      GridPruning ... 4 (adaptive)
Weight generation scheme         WeightScheme... mBecke (2022)
Basis function cutoff            BFCut       ... 1.0000e-11
Integration weight cutoff        WCut        ... 1.0000e-14
Partially contracted basis set               ... on
Rotationally invariant grid construction     ... off
Angular grids for H and He will be reduced by one unit

Total number of grid points                  ...    10559
Total number of batches                      ...       87
Average number of points per batch           ...      121
Average number of grid points per atom       ...     1320
UseSFitting                                  ... on

GRIDX 3
-------
General Integration Accuracy     IntAcc      ... 4.338
Radial Grid Type                 RadialGrid  ... OptM3 with GC (2021)
Angular Grid (max. ang.)         AngularGrid ... 3 (Lebedev-194)
Angular grid pruning method      GridPruning ... 4 (adaptive)
Weight generation scheme         WeightScheme... mBecke (2022)
Basis function cutoff            BFCut       ... 1.0000e-11
Integration weight cutoff        WCut        ... 1.0000e-14
Partially contracted basis set               ... on
Rotationally invariant grid construction     ... off
Angular grids for H and He will be reduced by one unit

Total number of grid points                  ...    23312
Total number of batches                      ...      187
Average number of points per batch           ...      124
Average number of grid points per atom       ...     2914
UseSFitting                                  ... on
Grids setup in   0.3 sec
Initializing property integral containers    ... done (  0.0 sec)

SHARK setup successfully completed in   0.4 seconds

Maximum memory used throughout the entire STARTUP-calculation: 15.9 MB
-------------------------------------------------------------------------------
                                 ORCA GUESS
                   Start orbitals & Density for SCF / CASSCF
-------------------------------------------------------------------------------

------------
SCF SETTINGS
------------
Hamiltonian:
 Density Functional     Method          .... DFT(GTOs)
 Exchange Functional    Exchange        .... B88
   X-Alpha parameter    XAlpha          ....  0.666667
   Becke's b parameter  XBeta           ....  0.004200
 Correlation Functional Correlation     .... LYP
 LDA part of GGA corr.  LDAOpt          .... VWN-5
 Gradients option       PostSCFGGA      .... off
 Hybrid DFT is turned on
   Fraction HF Exchange ScalHFX         ....  0.200000
   Scaling of DF-GGA-X  ScalDFX         ....  0.720000
   Scaling of DF-GGA-C  ScalDFC         ....  0.810000
   Scaling of DF-LDA-C  ScalLDAC        ....  1.000000
   Perturbative correction              ....  0.000000
   NL short-range parameter             ....  4.800000
 RI-approximation to the Coulomb term is turned on
   Number of AuxJ basis functions       .... 240
   RIJ-COSX (HFX calculated with COS-X)).... on


General Settings:
 Integral files         IntName         .... .\AcOH
 Hartree-Fock type      HFTyp           .... RHF
 Total Charge           Charge          ....    0
 Multiplicity           Mult            ....    1
 Number of Electrons    NEL             ....   32
 Basis Dimension        Dim             ....   76
 Nuclear Repulsion      ENuc            ....    120.3067417317 Eh

Convergence Acceleration:
 AO-DIIS                CNVDIIS         .... on
   Start iteration      DIISMaxIt       ....    12
   Startup error        DIISStart       ....  0.200000
   # of expansion vecs  DIISMaxEq       ....     5
   Bias factor          DIISBfac        ....   1.050
   Max. coefficient     DIISMaxC        ....  10.000
 MO-DIIS                CNVKDIIS        .... off
 Trust-Rad. Augm. Hess. CNVTRAH         .... auto
   Auto Start mean grad. ratio tolernc. ....  1.125000
   Auto Start start iteration           ....    50
   Auto Start num. interpolation iter.  ....    10
   Max. Number of Micro iterations      ....    24
   Max. Number of Macro iterations      .... Maxiter - #DIIS iter
   Number of Davidson start vectors     ....     2
   Converg. threshold    (grad. norm)   ....   1.000e-05
   Grad. Scal. Fac. for Micro threshold ....   0.100
   Minimum threshold for Micro iter.    ....   1.000e-02
   NR start threshold (gradient norm)   ....   1.000e-04
   Initial trust radius                 ....   0.400
   Minimum AH scaling param. (alpha)    ....   1.000
   Maximum AH scaling param. (alpha)    .... 1000.000
   Quad. conv. algorithm                .... NR
   White noise on init. David. guess    .... on
   Maximum white noise                  ....   0.010
   Pseudo random numbers                .... off
   Inactive MOs                         .... canonical
   Orbital update algorithm             .... Taylor
   Preconditioner                       .... Diag
   Full preconditioner red. dimension   ....   250
 SOSCF                 CNVSOSCF           .... on
   Start iteration     SOSCFMaxIt         ....   150
   Startup grad/error  SOSCFStart         ....  0.003300
   Hessian update      SOSCFHessUp        .... L-BFGS
   Autom. constraints  SOSCFAutoConstrain .... off
 Level Shifting         CNVShift        .... on
   Level shift para.    LevelShift      ....    0.2500
   Turn off err/grad.   ShiftErr        ....    0.0010
 Zerner damping         CNVZerner       .... off
 Static damping         CNVDamp         .... on
   Fraction old density DampFac         ....    0.7000
   Max. Damping (<1)    DampMax         ....    0.9800
   Min. Damping (>=0)   DampMin         ....    0.0000
   Turn off err/grad.   DampErr         ....    0.1000

SCF Procedure:
 Maximum # iterations   MaxIter         ....   125
 SCF integral mode      SCFMode         .... Direct
   Integral package                     .... SHARK and LIBINT hybrid scheme
 Reset frequency        DirectResetFreq ....    20
 Integral Threshold     Thresh          ....  2.500e-11 Eh
 Primitive CutOff       TCut            ....  2.500e-12 Eh

Convergence Tolerance:
 Convergence Check Mode ConvCheckMode   .... Total+1el-Energy
 Convergence forced     ConvForced      .... 0
 Energy Change          TolE            ....  1.000e-08 Eh
 1-El. energy change                    ....  1.000e-05 Eh
 Orbital Gradient       TolG            ....  1.000e-05
 Orbital Rotation angle TolX            ....  1.000e-05
 DIIS Error             TolErr          ....  5.000e-07

------------------------------
INITIAL GUESS: MODEL POTENTIAL
------------------------------
Loading Hartree-Fock densities                     ... done
Calculating cut-offs                               ... done
Initializing the effective Hamiltonian             ... done
Setting up the integral package (SHARK)            ... done
Starting the Coulomb interaction                   ... done (   0.1 sec)
Making the grid                                    ... done (   0.5 sec)
Mapping shells                                     ... done
Starting the XC term evaluation                    ... done (   0.1 sec)
  promolecular density results
     # of electrons  =     31.998183871
     EX              =    -27.842491782
     EC              =     -1.095105255
     EX+EC           =    -28.937597038
Transforming the Hamiltonian                       ... done (   0.0 sec)
Diagonalizing the Hamiltonian                      ... done (   0.1 sec)
Back transforming the eigenvectors                 ... done (   0.0 sec)
Now organizing SCF variables                       ... done
                      ------------------
                      INITIAL GUESS DONE (   0.9 sec)
                      ------------------
             **** ENERGY FILE WAS UPDATED (.\AcOH.en.tmp) ****
Finished Guess after   1.0 sec
Maximum memory used throughout the entire GUESS-calculation: 7.2 MB

-------------------------------------------------------------------------------------------
                                      ORCA LEAN-SCF
                              memory conserving SCF solver
-------------------------------------------------------------------------------------------

----------------------------------------D-I-I-S--------------------------------------------
Iteration    Energy (Eh)           Delta-E    RMSDP     MaxDP     DIISErr   Damp  Time(sec)
-------------------------------------------------------------------------------------------
               ***  Starting incremental Fock matrix formation  ***
    1    -228.6040612685912947     0.00e+00  7.01e-03  1.07e-01  2.85e-01  0.700   0.6
    2    -228.6947267631407499    -9.07e-02  4.16e-03  6.26e-02  1.09e-01  0.700   0.4
                               ***Turning on AO-DIIS***
    3    -228.7247995407266785    -3.01e-02  1.36e-03  1.83e-02  4.10e-02  0.700   0.6
    4    -228.7441787180443384    -1.94e-02  1.96e-03  2.07e-02  1.80e-02  0.000   0.6
    5    -228.7880466335707297    -4.39e-02  5.37e-04  5.77e-03  9.35e-03  0.000   0.6
                              *** Initializing SOSCF ***
---------------------------------------S-O-S-C-F--------------------------------------
Iteration    Energy (Eh)           Delta-E    RMSDP     MaxDP     MaxGrad    Time(sec)
--------------------------------------------------------------------------------------
    6    -228.7883319058075244    -2.85e-04  1.60e-04  1.80e-03  1.73e-03     0.5
               *** Restarting incremental Fock matrix formation ***
    7    -228.7883294329051864     2.47e-06  1.14e-04  1.77e-03  3.04e-04     0.5
    8    -228.7883301690407620    -7.36e-07  4.23e-05  6.42e-04  3.74e-04     0.5
    9    -228.7883313943822259    -1.23e-06  3.15e-05  3.03e-04  1.75e-04     0.5
   10    -228.7883313394152651     5.50e-08  1.48e-05  3.06e-04  1.32e-04     0.4
   11    -228.7883316443763420    -3.05e-07  5.35e-06  7.22e-05  2.02e-05     0.5
   12    -228.7883316431586991     1.22e-09  2.52e-06  4.17e-05  3.06e-05     0.5
                 **** Energy Check signals convergence ****

               *****************************************************
               *                     SUCCESS                       *
               *           SCF CONVERGED AFTER  12 CYCLES          *
               *****************************************************

Recomputing exchange energy using gridx3       ... done (    0.726 sec)
Old exchange energy                            :     -5.636735149 Eh
New exchange energy                            :     -5.636750229 Eh
Exchange energy change after final integration :     -0.000015080 Eh
Total energy after final integration           :   -228.788346729 Eh
             **** ENERGY FILE WAS UPDATED (.\AcOH.en.tmp) ****

----------------
TOTAL SCF ENERGY
----------------

Total Energy       :       -228.78834672912976 Eh           -6225.64742 eV

Components:
Nuclear Repulsion  :        120.30674173172650 Eh            3273.71287 eV
Electronic Energy  :       -349.09507338072461 Eh           -9499.35988 eV
One Electron Energy:       -550.39049055918906 Eh          -14976.88666 eV
Two Electron Energy:        201.29541717846445 Eh            5477.52677 eV

Virial components:
Potential Energy   :       -455.63610405499230 Eh          -12398.48872 eV
Kinetic Energy     :        226.84775732586257 Eh            6172.84130 eV
Virial Ratio       :          2.00855458932521

DFT components:
N(Alpha)           :       15.999995703507 electrons
N(Beta)            :       15.999995703507 electrons
N(Total)           :       31.999991407013 electrons
E(X)               :      -22.434608273796 Eh       
E(C)               :       -1.297145305023 Eh       
E(XC)              :      -23.731753578819 Eh       

---------------
SCF CONVERGENCE
---------------

  Last Energy change         ...   -1.2176e-09  Tolerance :   1.0000e-08
  Last MAX-Density change    ...    4.1692e-05  Tolerance :   1.0000e-07
  Last RMS-Density change    ...    2.5241e-06  Tolerance :   5.0000e-09
  Last DIIS Error            ...    1.7253e-03  Tolerance :   5.0000e-07
  Last Orbital Gradient      ...    3.0598e-05  Tolerance :   1.0000e-05
  Last Orbital Rotation      ...    2.1522e-05  Tolerance :   1.0000e-05


----------------
ORBITAL ENERGIES
----------------

  NO   OCC          E(Eh)            E(eV) 
   0   2.0000     -19.173277      -521.7314 
   1   2.0000     -19.105452      -519.8858 
   2   2.0000     -10.315550      -280.7004 
   3   2.0000     -10.205304      -277.7005 
   4   2.0000      -1.080846       -29.4113 
   5   2.0000      -0.986046       -26.8317 
   6   2.0000      -0.747668       -20.3451 
   7   2.0000      -0.628701       -17.1078 
   8   2.0000      -0.485414       -13.2088 
   9   2.0000      -0.464486       -12.6393 
  10   2.0000      -0.457735       -12.4556 
  11   2.0000      -0.407972       -11.1015 
  12   2.0000      -0.391351       -10.6492 
  13   2.0000      -0.371016       -10.0959 
  14   2.0000      -0.308314        -8.3897 
  15   2.0000      -0.262340        -7.1386 
  16   0.0000       0.006503         0.1770 
  17   0.0000       0.046930         1.2770 
  18   0.0000       0.079382         2.1601 
  19   0.0000       0.119068         3.2400 
  20   0.0000       0.139662         3.8004 
  21   0.0000       0.218460         5.9446 
  22   0.0000       0.262875         7.1532 
  23   0.0000       0.310631         8.4527 
  24   0.0000       0.448143        12.1946 
  25   0.0000       0.448816        12.2129 
  26   0.0000       0.501701        13.6520 
*Only the first 10 virtual orbitals were printed.

                    ********************************
                    * MULLIKEN POPULATION ANALYSIS *
                    ********************************

-----------------------
MULLIKEN ATOMIC CHARGES
-----------------------
   0 C :    0.013380
   1 C :    0.090047
   2 H :    0.027813
   3 H :    0.061945
   4 H :    0.061740
   5 O :   -0.249742
   6 O :   -0.197958
   7 H :    0.192774
Sum of atomic charges:    0.0000000

--------------------------------
MULLIKEN REDUCED ORBITAL CHARGES
--------------------------------
  0 C s       :     2.980615  s :     2.980615
      pz      :     1.029734  p :     2.980978
      px      :     0.959439
      py      :     0.991806
      dz2     :     0.005646  d :     0.025027
      dxz     :     0.004731
      dyz     :     0.003285
      dx2y2   :     0.008319
      dxy     :     0.003045

  1 C s       :     3.086560  s :     3.086560
      pz      :     0.821939  p :     2.693363
      px      :     0.987098
      py      :     0.884325
      dz2     :     0.008046  d :     0.130030
      dxz     :     0.011117
      dyz     :     0.025108
      dx2y2   :     0.033957
      dxy     :     0.051802

  2 H s       :     0.949672  s :     0.949672
      pz      :     0.004661  p :     0.022515
      px      :     0.003824
      py      :     0.014030

  3 H s       :     0.914764  s :     0.914764
      pz      :     0.010223  p :     0.023291
      px      :     0.006217
      py      :     0.006851

  4 H s       :     0.914964  s :     0.914964
      pz      :     0.011787  p :     0.023296
      px      :     0.006031
      py      :     0.005478

  5 O s       :     3.748668  s :     3.748668
      pz      :     1.388390  p :     4.483490
      px      :     1.754955
      py      :     1.340145
      dz2     :     0.002060  d :     0.017585
      dxz     :     0.000355
      dyz     :     0.005385
      dx2y2   :     0.005713
      dxy     :     0.004071

  6 O s       :     3.651929  s :     3.651929
      pz      :     1.774273  p :     4.534911
      px      :     1.134318
      py      :     1.626319
      dz2     :     0.001761  d :     0.011118
      dxz     :     0.000565
      dyz     :     0.001891
      dx2y2   :     0.002223
      dxy     :     0.004678

  7 H s       :     0.742012  s :     0.742012
      pz      :     0.015450  p :     0.065213
      px      :     0.035317
      py      :     0.014446



                     *******************************
                     * LOEWDIN POPULATION ANALYSIS *
                     *******************************

----------------------
LOEWDIN ATOMIC CHARGES
----------------------
   0 C :   -0.071991
   1 C :    0.084726
   2 H :    0.035681
   3 H :    0.055971
   4 H :    0.055933
   5 O :   -0.207242
   6 O :   -0.054900
   7 H :    0.101822

-------------------------------
LOEWDIN REDUCED ORBITAL CHARGES
-------------------------------
  0 C s       :     2.852575  s :     2.852575
      pz      :     1.070314  p :     3.152205
      px      :     1.020230
      py      :     1.061661
      dz2     :     0.015081  d :     0.067211
      dxz     :     0.012849
      dyz     :     0.007587
      dx2y2   :     0.022614
      dxy     :     0.009080

  1 C s       :     2.857459  s :     2.857459
      pz      :     0.805624  p :     2.775043
      px      :     0.980614
      py      :     0.988806
      dz2     :     0.017602  d :     0.282772
      dxz     :     0.019850
      dyz     :     0.048768
      dx2y2   :     0.078056
      dxy     :     0.118496

  2 H s       :     0.899797  s :     0.899797
      pz      :     0.012172  p :     0.064521
      px      :     0.011670
      py      :     0.040680

  3 H s       :     0.880264  s :     0.880264
      pz      :     0.028113  p :     0.063765
      px      :     0.017842
      py      :     0.017810

  4 H s       :     0.880302  s :     0.880302
      pz      :     0.033134  p :     0.063765
      px      :     0.017285
      py      :     0.013347

  5 O s       :     3.558616  s :     3.558616
      pz      :     1.389771  p :     4.618452
      px      :     1.757088
      py      :     1.471593
      dz2     :     0.004248  d :     0.030174
      dxz     :     0.000437
      dyz     :     0.006911
      dx2y2   :     0.011577
      dxy     :     0.007001

  6 O s       :     3.402858  s :     3.402858
      pz      :     1.730240  p :     4.628114
      px      :     1.240264
      py      :     1.657611
      dz2     :     0.003816  d :     0.023928
      dxz     :     0.001332
      dyz     :     0.002134
      dx2y2   :     0.006008
      dxy     :     0.010639

  7 H s       :     0.723570  s :     0.723570
      pz      :     0.044079  p :     0.174608
      px      :     0.088757
      py      :     0.041773



                      *****************************
                      * MAYER POPULATION ANALYSIS *
                      *****************************

  NA   - Mulliken gross atomic population
  ZA   - Total nuclear charge
  QA   - Mulliken gross atomic charge
  VA   - Mayer's total valence
  BVA  - Mayer's bonded valence
  FA   - Mayer's free valence

  ATOM       NA         ZA         QA         VA         BVA        FA
  0 C      5.9866     6.0000     0.0134     3.8804     3.8804     0.0000
  1 C      5.9100     6.0000     0.0900     4.4310     4.4310     0.0000
  2 H      0.9722     1.0000     0.0278     0.9993     0.9993     0.0000
  3 H      0.9381     1.0000     0.0619     1.0003     1.0003    -0.0000
  4 H      0.9383     1.0000     0.0617     1.0004     1.0004    -0.0000
  5 O      8.2497     8.0000    -0.2497     2.1995     2.1995     0.0000
  6 O      8.1980     8.0000    -0.1980     2.2169     2.2169    -0.0000
  7 H      0.8072     1.0000     0.1928     1.0170     1.0170     0.0000

  Mayer bond orders larger than 0.100000
B(  0-C ,  1-C ) :   1.0349 B(  0-C ,  2-H ) :   0.9517 B(  0-C ,  3-H ) :   0.9550 
B(  0-C ,  4-H ) :   0.9551 B(  1-C ,  5-O ) :   2.0715 B(  1-C ,  6-O ) :   1.2184 
B(  6-O ,  7-H ) :   0.9330 

-------
TIMINGS
-------

Total SCF time: 0 days 0 hours 0 min 7 sec 

Total time                  ....       7.541 sec
Sum of individual times     ....       7.140 sec  ( 94.7%)

SCF preparation             ....       0.117 sec  (  1.6%)
Fock matrix formation       ....       6.210 sec  ( 82.3%)
  Startup                   ....       0.003 sec  (  0.0% of F)
  Split-RI-J                ....       0.413 sec  (  6.7% of F)
  Chain of spheres X        ....       4.094 sec  ( 65.9% of F)
  XC integration            ....       1.874 sec  ( 30.2% of F)
    Basis function eval.    ....       0.625 sec  ( 33.4% of XC)
    Density eval.           ....       0.298 sec  ( 15.9% of XC)
    XC-Functional eval.     ....       0.159 sec  (  8.5% of XC)
    XC-Potential eval.      ....       0.561 sec  ( 29.9% of XC)
Diagonalization             ....       0.000 sec  (  0.0%)
Density matrix formation    ....       0.175 sec  (  2.3%)
Total Energy calculation    ....       0.117 sec  (  1.6%)
Population analysis         ....       0.030 sec  (  0.4%)
Orbital Transformation      ....       0.043 sec  (  0.6%)
Orbital Orthonormalization  ....       0.000 sec  (  0.0%)
DIIS solution               ....       0.270 sec  (  3.6%)
SOSCF solution              ....       0.178 sec  (  2.4%)
Finished LeanSCF after   7.6 sec

Maximum memory used throughout the entire LEANSCF-calculation: 8.5 MB

------------------------------------------------------------------------------
                         ORCA PROPERTY INTEGRAL CALCULATIONS
------------------------------------------------------------------------------

GBWName                                   ... .\AcOH.gbw
Number of atoms                           ...      8
Number of basis functions                 ...     76
Max core memory                           ...   4096 MB

Dipole integrals                          ... YES
Quadrupole integrals                      ...  NO
Linear momentum integrals                 ...  NO
Angular momentum integrals                ...  NO
Higher moments length integrals           ...  NO
Higher moments velocity integrals         ...  NO
Kinetic energy integrals                  ...  NO
GIAO right hand sides                     ...  NO
GIAO dipole derivative integrals          ...  NO
SOC integrals                             ...  NO
EPR diamagnetic integrals (GIAO)          ...  NO
EPR gauge integrals                       ...  NO
Field gradient integrals                  ...  NO (   0 nuclei)
Spin-dipole/Fermi contact integrals       ...  NO (   0 nuclei)
Contact density integrals                 ...  NO (   0 nuclei)
Nucleus-orbit integrals                   ...  NO (   0 nuclei)
Geometric perturbations                   ...  NO (   8 nuclei)

Choice of electric origin   ... Center of mass
Position of electric origin ... (-12.8747,  4.0255,  0.0526) 
Choice of magnetic origin   ... GIAO
Position of magnetic origin ... (  0.0000,  0.0000,  0.0000) 

Calculating integrals                     ... Electric Dipole (Length)     done (  0.0 sec)

Property integrals calculated in   0.0 sec

Maximum memory used throughout the entire PROPINT-calculation: 6.8 MB

-------------------------   --------------------
FINAL SINGLE POINT ENERGY      -228.788346729130
-------------------------   --------------------

------------------------------------------------------------------------------
                         ORCA SCF GRADIENT CALCULATION
------------------------------------------------------------------------------

Nuc. rep. gradient        (SHARK) ... done (  0.0 sec)
HCore & Overlap gradient  (SHARK) ... done (  0.0 sec)
Split-RIJ-J gradient      (SHARK) ... done (  0.1 sec)
done (  3.3 sec)
XC gradient                       ... done (  0.7 sec)

------------------
CARTESIAN GRADIENT
------------------

   1   C   :    0.003144061    0.028866826    0.003814060
   2   C   :   -0.036768537   -0.054467204   -0.006807079
   3   H   :    0.003449534   -0.006053232   -0.000867108
   4   H   :   -0.004142299    0.001029258   -0.006332620
   5   H   :   -0.003982694   -0.000686744    0.006491202
   6   O   :    0.003951142    0.014862287    0.001937088
   7   O   :    0.027064533    0.036310479    0.004513091
   8   H   :    0.007284261   -0.019861669   -0.002748635

Difference to translation invariance:
           :    0.0000000000    0.0000000000    0.0000000000

Difference to rotation invariance:
           :    0.0000404090   -0.0000300400   -0.0000030630

Norm of the Cartesian gradient     ...    0.0903072889
RMS gradient                       ...    0.0184338982
MAX gradient                       ...    0.0544672045

-------
TIMINGS
-------

Total SCF gradient time     ....        4.237 sec

Densities                   ....       0.001 sec  (  0.0%)
One electron gradient       ....       0.023 sec  (  0.5%)
RI-J Coulomb gradient       ....       0.141 sec  (  3.3%)
COSX gradient               ....       3.340 sec  ( 78.8%)
XC gradient                 ....       0.728 sec  ( 17.2%)

Maximum memory used throughout the entire SCFGRAD-calculation: 10.7 MB
------------------------------------------------------------------------------
                         ORCA GEOMETRY RELAXATION STEP
------------------------------------------------------------------------------

Reading the OPT-File                    .... done
Getting information on internals        .... done
Copying old internal coords+grads       .... done
Making the new internal coordinates     .... (2022 redundants) done
Validating the new internal coordinates .... (2022 redundants) done
Calculating the B-matrix                .... done
Calculating the G,G- and P matrices     .... done
Transforming gradient to internals      .... done
Projecting the internal gradient        .... done
Number of atoms                         ....   8
Number of internal coordinates          ....  24
Current Energy                          ....  -228.788346729 Eh
Current gradient norm                   ....     0.090307289 Eh/bohr
Maximum allowed component of the step   ....  0.300
Current trust radius                    ....  0.300
Evaluating the initial hessian          ....  (Almloef) done
Projecting the Hessian                  .... done
Forming the augmented Hessian           .... done
Diagonalizing the augmented Hessian     .... done
Last element of RFO vector              ....  0.988432415
Lowest eigenvalues of augmented Hessian:
 -0.009429210  0.013360135  0.018580978  0.031072785  0.135173238
Length of the computed step             ....  0.153436890
The final length of the internal step   ....  0.153436890
Converting the step to Cartesian space:
 Initial RMS(Int)=    0.0313201741
Transforming coordinates:
 Iter   0:  RMS(Cart)=    0.0394158577 RMS(Int)=    1.2827010018
 Iter   5:  RMS(Cart)=    0.0000000074 RMS(Int)=    0.0000000062
done
Storing new coordinates                 .... done

                                .--------------------.
          ----------------------|Geometry convergence|-------------------------
          Item                value                   Tolerance       Converged
          ---------------------------------------------------------------------
          RMS gradient        0.0128677911            0.0001000000      NO
          MAX gradient        0.0389064312            0.0003000000      NO
          RMS step            0.0313201741            0.0020000000      NO
          MAX step            0.1022263630            0.0040000000      NO
          -------------------------------------------------------------------------
          ........................................................
          Max(Bonds)      0.0111      Max(Angles)    5.86
          Max(Dihed)        0.92      Max(Improp)    0.00
          ---------------------------------------------------------------------

The optimization has not yet converged - more geometry cycles are needed


    ---------------------------------------------------------------------------
                         Redundant Internal Coordinates
                            (Angstroem and degrees)

        Definition                    Value    dE/dq     Step     New-Value
    ----------------------------------------------------------------------------
     1. B(C   1,C   0)                1.4948 -0.005294  0.0064    1.5012   
     2. B(H   2,C   0)                1.1104  0.005892 -0.0091    1.1014   
     3. B(H   3,C   0)                1.1102  0.007198 -0.0111    1.0991   
     4. B(H   4,C   0)                1.1102  0.007208 -0.0111    1.0991   
     5. B(O   5,C   1)                1.2217  0.015493 -0.0078    1.2139   
     6. B(O   6,C   1)                1.3498  0.013730 -0.0110    1.3388   
     7. B(H   7,O   6)                0.9678  0.001591 -0.0016    0.9661   
     8. A(C   1,C   0,H   2)          110.33 -0.008000    1.57    111.90   
     9. A(C   1,C   0,H   4)          109.69  0.003382   -0.70    108.99   
    10. A(H   2,C   0,H   4)          108.92 -0.000359    0.25    109.17   
    11. A(C   1,C   0,H   3)          109.69  0.003765   -0.72    108.97   
    12. A(H   3,C   0,H   4)          109.28  0.000844   -0.64    108.64   
    13. A(H   2,C   0,H   3)          108.92  0.000380    0.22    109.14   
    14. A(C   0,C   1,O   5)          119.87 -0.016556    2.27    122.14   
    15. A(O   5,C   1,O   6)          120.14 -0.017632    2.25    122.39   
    16. A(C   0,C   1,O   6)          120.00  0.034187   -4.52    115.47   
    17. A(C   1,O   6,H   7)          121.13  0.038906   -5.86    115.27   
    18. D(O   5,C   1,C   0,H   3)     60.02  0.002366   -0.74     59.27   
    19. D(O   5,C   1,C   0,H   2)    180.00  0.000209    0.06    180.06   
    20. D(O   6,C   1,C   0,H   2)     -0.00 -0.000823    0.31      0.31   
    21. D(O   6,C   1,C   0,H   3)   -119.98  0.001334   -0.50   -120.49   
    22. D(O   5,C   1,C   0,H   4)    -60.02 -0.003105    0.92    -59.09   
    23. D(H   7,O   6,C   1,O   5)     -0.00 -0.000520    0.12      0.12   
    24. D(H   7,O   6,C   1,C   0)    180.00  0.000516   -0.12    179.88   
    ----------------------------------------------------------------------------

Geometry step timings:
Preparation and reading OPT file:      0.000 s ( 0.000 %)
Internal coordinates            :      0.001 s ( 9.091 %)
B/P matrices and projection     :      0.001 s ( 9.091 %)
Hessian update/contruction      :      0.002 s (18.182 %)
Making the step                 :      0.004 s (36.364 %)
Converting the step to Cartesian:      0.001 s ( 9.091 %)
Storing new data                :      0.001 s ( 9.091 %)
Checking convergence            :      0.000 s ( 0.000 %)
Final printing                  :      0.001 s ( 9.091 %)
Total time                      :      0.011 s

Time for energy+gradient        :     14.012 s
Time for complete geometry iter :     14.104 s

         *************************************************************
         *                GEOMETRY OPTIMIZATION CYCLE   2            *
         *************************************************************
---------------------------------
CARTESIAN COORDINATES (ANGSTROEM)
---------------------------------
  C     -8.218453    1.739883   -0.006020
  C     -6.792457    2.206836    0.039912
  H     -8.289455    0.650205   -0.149342
  H     -8.733756    2.246631   -0.834072
  H     -8.714547    2.013105    0.935888
  O     -6.500125    3.375072    0.192343
  O     -5.868029    1.249092   -0.103481
  H     -4.951398    1.553115   -0.075229

----------------------------
CARTESIAN COORDINATES (A.U.)
----------------------------
  NO LB      ZA    FRAG     MASS         X           Y           Z
   0 C     6.0000    0    12.011  -15.530626    3.287902   -0.011376
   1 C     6.0000    0    12.011  -12.835884    4.170316    0.075424
   2 H     1.0000    0     1.008  -15.664799    1.228710   -0.282215
   3 H     1.0000    0     1.008  -16.504406    4.245518   -1.576168
   4 H     1.0000    0     1.008  -16.468108    3.804217    1.768573
   5 O     8.0000    0    15.999  -12.283456    6.377963    0.363476
   6 O     8.0000    0    15.999  -11.088968    2.360442   -0.195550
   7 H     1.0000    0     1.008   -9.356786    2.934962   -0.142163

--------------------------------
INTERNAL COORDINATES (ANGSTROEM)
--------------------------------
 C      0   0   0     0.000000000000     0.00000000     0.00000000
 C      1   0   0     1.501205746645     0.00000000     0.00000000
 H      1   2   0     1.101353828605   111.89915108     0.00000000
 H      1   2   3     1.099091254209   108.96512665   239.21406225
 H      1   2   3     1.099068116023   108.97865247   120.83139561
 O      2   1   3     1.213865507898   122.13825750   180.06492838
 O      2   1   3     1.338806800463   115.47382276     0.30423853
 H      7   2   1     0.966147552526   115.26823610   179.88275907

---------------------------
INTERNAL COORDINATES (A.U.)
---------------------------
 C      0   0   0     0.000000000000     0.00000000     0.00000000
 C      1   0   0     2.836867731828     0.00000000     0.00000000
 H      1   2   0     2.081257112609   111.89915108     0.00000000
 H      1   2   3     2.076981466643   108.96512665   239.21406225
 H      1   2   3     2.076937741808   108.97865247   120.83139561
 O      2   1   3     2.293873373341   122.13825750   180.06492838
 O      2   1   3     2.529978199106   115.47382276     0.30423853
 H      7   2   1     1.825754279232   115.26823610   179.88275907

------------------------------------------------------------------------------
                   ___                                                        
                  /   \      - P O W E R E D   B Y -                         
                 /     \                                                     
                 |  |  |   _    _      __       _____    __    __             
                 |  |  |  | |  | |    /  \     |  _  \  |  |  /  |          
                  \  \/   | |  | |   /    \    | | | |  |  | /  /          
                 / \  \   | |__| |  /  /\  \   | |_| |  |  |/  /          
                |  |  |   |  __  | /  /__\  \  |    /   |      \           
                |  |  |   | |  | | |   __   |  |    \   |  |\   \          
                \     /   | |  | | |  |  |  |  | |\  \  |  | \   \       
                 \___/    |_|  |_| |__|  |__|  |_| \__\ |__|  \__/        
                                                                              
                      - O R C A' S   B I G   F R I E N D -                    
                                      &                                       
                       - I N T E G R A L  F E E D E R -                       
                                                                              
 v1 FN, 2020, v2 2021, v3 2022-2024                                           
------------------------------------------------------------------------------


----------------------
SHARK INTEGRAL PACKAGE
----------------------

Number of atoms                             ...      8
Number of basis functions                   ...     76
Number of shells                            ...     36
Maximum angular momentum                    ...      2
Integral batch strategy                     ... SHARK/LIBINT Hybrid
RI-J (if used) integral strategy            ... SPLIT-RIJ (Revised 2003 algorithm where possible)
Printlevel                                  ...      1
Contraction scheme used                     ... SEGMENTED contraction
Prescreening option                         ... SCHWARTZ
   Thresh                                   ... 2.500e-11
   Tcut                                     ... 2.500e-12
   Tpresel                                  ... 2.500e-12 
Coulomb Range Separation                    ... NOT USED
Exchange Range Separation                   ... NOT USED
Multipole approximations                    ... NOT USED
Finite Nucleus Model                        ... NOT USED
CABS basis                                  ... NOT available
Auxiliary Coulomb fitting basis             ... AVAILABLE
   # of basis functions in Aux-J            ...    240
   # of shells in Aux-J                     ...     80
   Maximum angular momentum in Aux-J        ...      4
Auxiliary J/K fitting basis                 ... NOT available
Auxiliary Correlation fitting basis         ... NOT available
Auxiliary 'external' fitting basis          ... NOT available

Checking pre-screening integrals            ... done (  0.0 sec) Dimension = 36
   => SHARK Basis and OBASIS are compatible. Storing Pre-screening
Shell pair information
Shell pair cut-off parameter TPreSel        ...   2.5e-12
Total number of shell pairs                 ...       666
Shell pairs after pre-screening             ...       663
Total number of primitive shell pairs       ...      2410
Primitive shell pairs kept                  ...      1985
          la=0 lb=0:    207 shell pairs
          la=1 lb=0:    240 shell pairs
          la=1 lb=1:     78 shell pairs
          la=2 lb=0:     80 shell pairs
          la=2 lb=1:     48 shell pairs
          la=2 lb=2:     10 shell pairs

Checking whether 4 symmetric matrices of dimension 76 fit in memory
:Max Core in MB      =   4096.00
 MB in use           =      3.97
 MB left             =   4092.03
 MB needed           =      0.09
 Data fit in memory  = YES
Calculating RI/J V-Matrix + Cholesky decomp.... done (  0.0 sec)
Calculating Nuclear repulsion               ... done (  0.0 sec) ENN=    120.944945535861 Eh

Diagonalization of the overlap matrix:
Smallest eigenvalue                        ... 3.563e-03
Time for diagonalization                   ...    0.000 sec
Threshold for overlap eigenvalues          ... 1.000e-07
Number of eigenvalues below threshold      ... 0
Time for construction of square roots      ...    0.001 sec
Total time needed                          ...    0.002 sec

-------------------
DFT GRID GENERATION
-------------------

General Integration Accuracy     IntAcc      ... 4.388
Radial Grid Type                 RadialGrid  ... OptM3 with GC (2021)
Angular Grid (max. ang.)         AngularGrid ... 4 (Lebedev-302)
Angular grid pruning method      GridPruning ... 4 (adaptive)
Weight generation scheme         WeightScheme... mBecke (2022)
Basis function cutoff            BFCut       ... 1.0000e-11
Integration weight cutoff        WCut        ... 1.0000e-14
Partially contracted basis set               ... off
Rotationally invariant grid construction     ... off
Angular grids for H and He will be reduced by one unit

Total number of grid points                  ...    37393
Total number of batches                      ...      589
Average number of points per batch           ...       63
Average number of grid points per atom       ...     4674

--------------------
COSX GRID GENERATION
--------------------

GRIDX 1
-------
General Integration Accuracy     IntAcc      ... 3.816
Radial Grid Type                 RadialGrid  ... OptM3 with GC (2021)
Angular Grid (max. ang.)         AngularGrid ... 1 (Lebedev-50)
Angular grid pruning method      GridPruning ... 4 (adaptive)
Weight generation scheme         WeightScheme... mBecke (2022)
Basis function cutoff            BFCut       ... 1.0000e-11
Integration weight cutoff        WCut        ... 1.0000e-14
Partially contracted basis set               ... on
Rotationally invariant grid construction     ... off
Angular grids for H and He will be reduced by one unit

Total number of grid points                  ...     4802
Total number of batches                      ...       42
Average number of points per batch           ...      114
Average number of grid points per atom       ...      600
UseSFitting                                  ... on

GRIDX 2
-------
General Integration Accuracy     IntAcc      ... 4.020
Radial Grid Type                 RadialGrid  ... OptM3 with GC (2021)
Angular Grid (max. ang.)         AngularGrid ... 2 (Lebedev-110)
Angular grid pruning method      GridPruning ... 4 (adaptive)
Weight generation scheme         WeightScheme... mBecke (2022)
Basis function cutoff            BFCut       ... 1.0000e-11
Integration weight cutoff        WCut        ... 1.0000e-14
Partially contracted basis set               ... on
Rotationally invariant grid construction     ... off
Angular grids for H and He will be reduced by one unit

Total number of grid points                  ...    10562
Total number of batches                      ...       87
Average number of points per batch           ...      121
Average number of grid points per atom       ...     1320
UseSFitting                                  ... on

GRIDX 3
-------
General Integration Accuracy     IntAcc      ... 4.338
Radial Grid Type                 RadialGrid  ... OptM3 with GC (2021)
Angular Grid (max. ang.)         AngularGrid ... 3 (Lebedev-194)
Angular grid pruning method      GridPruning ... 4 (adaptive)
Weight generation scheme         WeightScheme... mBecke (2022)
Basis function cutoff            BFCut       ... 1.0000e-11
Integration weight cutoff        WCut        ... 1.0000e-14
Partially contracted basis set               ... on
Rotationally invariant grid construction     ... off
Angular grids for H and He will be reduced by one unit

Total number of grid points                  ...    23302
Total number of batches                      ...      186
Average number of points per batch           ...      125
Average number of grid points per atom       ...     2913
UseSFitting                                  ... on
Grids setup in   0.3 sec
Initializing property integral containers    ... done (  0.0 sec)

SHARK setup successfully completed in   0.4 seconds

Maximum memory used throughout the entire STARTUP-calculation: 16.0 MB
Occupation numbers will be reassigned to an Aufbau configuration
             **** ENERGY FILE WAS UPDATED (.\AcOH.en.tmp) ****
Finished Guess after   0.1 sec
Maximum memory used throughout the entire GUESS-calculation: 6.7 MB
----------------------------------------D-I-I-S--------------------------------------------
Iteration    Energy (Eh)           Delta-E    RMSDP     MaxDP     DIISErr   Damp  Time(sec)
-------------------------------------------------------------------------------------------
               ***  Starting incremental Fock matrix formation  ***
    1    -228.7936976175615484     0.00e+00  4.21e-04  4.21e-03  1.55e-02  0.700   0.6
    2    -228.7941483649682652    -4.51e-04  3.76e-04  3.84e-03  1.20e-02  0.700   0.4
                               ***Turning on AO-DIIS***
    3    -228.7944794129135460    -3.31e-04  3.03e-04  3.12e-03  8.84e-03  0.700   0.3
    4    -228.7947119380074525    -2.33e-04  7.43e-04  7.45e-03  6.34e-03  0.000   0.3
                              *** Initializing SOSCF ***
---------------------------------------S-O-S-C-F--------------------------------------
Iteration    Energy (Eh)           Delta-E    RMSDP     MaxDP     MaxGrad    Time(sec)
--------------------------------------------------------------------------------------
    5    -228.7952955891334170    -5.84e-04  4.24e-05  5.63e-04  2.96e-04     0.4
               *** Restarting incremental Fock matrix formation ***
    6    -228.7952964514894063    -8.62e-07  2.98e-05  3.17e-04  7.36e-05     0.5
    7    -228.7952964787859571    -2.73e-08  1.23e-05  1.84e-04  1.05e-04     0.5
    8    -228.7952966154533954    -1.37e-07  9.50e-06  1.50e-04  4.88e-05     0.5
    9    -228.7952966013471325     1.41e-08  5.70e-06  7.48e-05  6.14e-05     0.5
   10    -228.7952966333532743    -3.20e-08  1.08e-06  2.07e-05  5.68e-06     0.5
   11    -228.7952966326253943     7.28e-10  6.59e-07  1.26e-05  9.02e-06     0.4
                 **** Energy Check signals convergence ****

               *****************************************************
               *                     SUCCESS                       *
               *           SCF CONVERGED AFTER  11 CYCLES          *
               *****************************************************

Recomputing exchange energy using gridx3       ... done (    0.715 sec)
Old exchange energy                            :     -5.641493380 Eh
New exchange energy                            :     -5.641499804 Eh
Exchange energy change after final integration :     -0.000006424 Eh
Total energy after final integration           :   -228.795303058 Eh
             **** ENERGY FILE WAS UPDATED (.\AcOH.en.tmp) ****

----------------
TOTAL SCF ENERGY
----------------

Total Energy       :       -228.79530305751524 Eh           -6225.83671 eV

Components:
Nuclear Repulsion  :        120.94494553586057 Eh            3291.07928 eV
Electronic Energy  :       -349.74024216976585 Eh           -9516.91582 eV
One Electron Energy:       -551.57009415488460 Eh          -15008.98530 eV
Two Electron Energy:        201.82985198511875 Eh            5492.06948 eV

Virial components:
Potential Energy   :       -455.74422525944442 Eh          -12401.43085 eV
Kinetic Energy     :        226.94892220192921 Eh            6175.59413 eV
Virial Ratio       :          2.00813566699358

DFT components:
N(Alpha)           :       15.999994416061 electrons
N(Beta)            :       15.999994416061 electrons
N(Total)           :       31.999988832121 electrons
E(X)               :      -22.450890111439 Eh       
E(C)               :       -1.298237126325 Eh       
E(XC)              :      -23.749127237764 Eh       

---------------
SCF CONVERGENCE
---------------

  Last Energy change         ...   -7.2788e-10  Tolerance :   1.0000e-08
  Last MAX-Density change    ...    1.2593e-05  Tolerance :   1.0000e-07
  Last RMS-Density change    ...    6.5926e-07  Tolerance :   5.0000e-09
  Last DIIS Error            ...    2.9640e-04  Tolerance :   5.0000e-07
  Last Orbital Gradient      ...    9.0192e-06  Tolerance :   1.0000e-05
  Last Orbital Rotation      ...    4.9826e-06  Tolerance :   1.0000e-05


Total SCF time: 0 days 0 hours 0 min 5 sec 
Finished LeanSCF after   6.1 sec

Maximum memory used throughout the entire LEANSCF-calculation: 8.6 MB

------------------------------------------------------------------------------
                         ORCA PROPERTY INTEGRAL CALCULATIONS
------------------------------------------------------------------------------

GBWName                                   ... .\AcOH.gbw
Number of atoms                           ...      8
Number of basis functions                 ...     76
Max core memory                           ...   4096 MB

Dipole integrals                          ... YES
Quadrupole integrals                      ...  NO
Linear momentum integrals                 ...  NO
Angular momentum integrals                ...  NO
Higher moments length integrals           ...  NO
Higher moments velocity integrals         ...  NO
Kinetic energy integrals                  ...  NO
GIAO right hand sides                     ...  NO
GIAO dipole derivative integrals          ...  NO
SOC integrals                             ...  NO
EPR diamagnetic integrals (GIAO)          ...  NO
EPR gauge integrals                       ...  NO
Field gradient integrals                  ...  NO (   0 nuclei)
Spin-dipole/Fermi contact integrals       ...  NO (   0 nuclei)
Contact density integrals                 ...  NO (   0 nuclei)
Nucleus-orbit integrals                   ...  NO (   0 nuclei)
Geometric perturbations                   ...  NO (   8 nuclei)

Choice of electric origin   ... Center of mass
Position of electric origin ... (-12.8739,  4.0248,  0.0537) 
Choice of magnetic origin   ... GIAO
Position of magnetic origin ... (  0.0000,  0.0000,  0.0000) 

Calculating integrals                     ... Electric Dipole (Length)     done (  0.0 sec)

Property integrals calculated in   0.0 sec

Maximum memory used throughout the entire PROPINT-calculation: 6.8 MB

-------------------------   --------------------
FINAL SINGLE POINT ENERGY      -228.795303057515
-------------------------   --------------------

------------------------------------------------------------------------------
                         ORCA SCF GRADIENT CALCULATION
------------------------------------------------------------------------------

Nuc. rep. gradient        (SHARK) ... done (  0.0 sec)
HCore & Overlap gradient  (SHARK) ... done (  0.0 sec)
Split-RIJ-J gradient      (SHARK) ... done (  0.1 sec)
done (  3.4 sec)
XC gradient                       ... done (  0.7 sec)

------------------
CARTESIAN GRADIENT
------------------

   1   C   :   -0.000643016    0.015417040    0.001894488
   2   C   :   -0.012746351   -0.030790214   -0.003412724
   3   H   :    0.000692016   -0.001545891   -0.000242790
   4   H   :    0.000375015   -0.001703515   -0.000563474
   5   H   :    0.000409824   -0.001778491    0.000124395
   6   O   :    0.000123922    0.008571473    0.000918331
   7   O   :    0.010782531    0.025110285    0.003096482
   8   H   :    0.001006059   -0.013280687   -0.001814708

Difference to translation invariance:
           :    0.0000000000    0.0000000000    0.0000000000

Difference to rotation invariance:
           :    0.0000480270   -0.0000221790    0.0000077475

Norm of the Cartesian gradient     ...    0.0488350662
RMS gradient                       ...    0.0099684162
MAX gradient                       ...    0.0307902144

-------
TIMINGS
-------

Total SCF gradient time     ....        4.298 sec

One electron gradient       ....       0.017 sec  (  0.4%)
RI-J Coulomb gradient       ....       0.128 sec  (  3.0%)
COSX gradient               ....       3.421 sec  ( 79.6%)
XC gradient                 ....       0.732 sec  ( 17.0%)

Maximum memory used throughout the entire SCFGRAD-calculation: 10.7 MB
------------------------------------------------------------------------------
                         ORCA GEOMETRY RELAXATION STEP
------------------------------------------------------------------------------

Reading the OPT-File                    .... done
Getting information on internals        .... done
Copying old internal coords+grads       .... done
Making the new internal coordinates     .... (2022 redundants) done
Validating the new internal coordinates .... (2022 redundants) done
Calculating the B-matrix                .... done
Calculating the G,G- and P matrices     .... done
Transforming gradient to internals      .... done
Projecting the internal gradient        .... done
Number of atoms                         ....   8
Number of internal coordinates          ....  24
Current Energy                          ....  -228.795303058 Eh
Current gradient norm                   ....     0.048835066 Eh/bohr
Maximum allowed component of the step   ....  0.300
Current trust radius                    ....  0.300
Updating the Hessian (BFGS)             .... done
Forming the augmented Hessian           .... done
Diagonalizing the augmented Hessian     .... done
Last element of RFO vector              ....  0.986942994
Lowest eigenvalues of augmented Hessian:
 -0.004935579  0.013360190  0.018591824  0.031072793  0.133521212
Length of the computed step             ....  0.163200856
The final length of the internal step   ....  0.163200856
Converting the step to Cartesian space:
 Initial RMS(Int)=    0.0333132352
Transforming coordinates:
 Iter   0:  RMS(Cart)=    0.0383862731 RMS(Int)=    1.2817019748
 Iter   5:  RMS(Cart)=    0.0000000385 RMS(Int)=    0.0000000325
done
Storing new coordinates                 .... done
The predicted energy change is          ....    -0.002533518
Previously predicted energy change      ....    -0.004825600
Actually observed energy change         ....    -0.006956328
Ratio of predicted to observed change   ....     1.441546792
New trust radius                        ....     0.300000000

                                .--------------------.
          ----------------------|Geometry convergence|-------------------------
          Item                value                   Tolerance       Converged
          ---------------------------------------------------------------------
[...]
     19       0.000000   0.000000   0.000000   0.000000   0.000000   0.000000
     20       0.000000   0.000000   0.000000   0.000000   0.000000   0.000000
     21       0.000000   0.000000   0.000000   0.000000   0.000000   0.000000
     22       0.000000   0.000000   0.000000   0.000000   0.000000   0.000000
     23       0.000000   0.000000   0.000000   0.000000   0.000000   0.000000
                  6          7          8          9         10         11    
      0       0.000153   0.078037  -0.001315   0.252523   0.000954   0.290408
      1      -0.000936  -0.173784  -0.001524   0.077199  -0.004505   0.040495
      2       0.006660  -0.025319   0.006856   0.007548   0.031100   0.001971
      3       0.000192  -0.023162  -0.003518   0.126260   0.001844  -0.101632
      4      -0.002469   0.151782   0.030012   0.033424  -0.019345  -0.107121
      5       0.019038   0.021560  -0.215436  -0.000250   0.138782  -0.014870
      6       0.005899   0.588370   0.007496   0.150321  -0.003641   0.170365
      7      -0.068106  -0.200998  -0.036016   0.087028   0.011088   0.057751
      8       0.526962  -0.038454   0.271189   0.013326  -0.087848   0.006208
      9       0.176249  -0.100232  -0.362129   0.297093   0.215885   0.411401
     10      -0.425553  -0.424844  -0.177736   0.149552   0.077239   0.198233
     11      -0.376042  -0.069097   0.130196   0.026100  -0.056094   0.032728
     12      -0.182133  -0.108540   0.357023   0.307447  -0.213047   0.415510
     13       0.504529  -0.434387   0.131462   0.156158  -0.057580   0.202692
     14      -0.252812  -0.045663   0.163321   0.011444  -0.069796   0.011482
     15       0.000762   0.156047   0.002454  -0.263619  -0.000927  -0.012240
     16      -0.005836   0.105669  -0.010208   0.139470   0.009220  -0.172384
     17       0.042682   0.012428   0.070153   0.024073  -0.066625  -0.023418
     18      -0.000933  -0.214471   0.000394  -0.077583  -0.001928  -0.172103
     19       0.006962  -0.007057   0.000080  -0.203388   0.014664   0.162572
     20      -0.050112   0.002202   0.005767  -0.027045  -0.104863   0.025444
     21      -0.001417  -0.106168   0.009978   0.147241   0.012778  -0.320780
     22       0.011837  -0.242764  -0.096406  -0.696359  -0.125646   0.490963
     23      -0.086387  -0.034204   0.715659  -0.090659   0.911337   0.071120
                 12         13         14         15         16         17    
      0       0.007878  -0.001749  -0.043407   0.065015   0.141369  -0.000940
      1       0.172499   0.023754   0.058561   0.044511  -0.004749   0.005987
      2       0.024170  -0.167627   0.008900   0.005505  -0.002063  -0.050420
      3      -0.064373   0.002799   0.135575   0.171025  -0.132678   0.001354
      4      -0.007091  -0.027925  -0.065377  -0.063801   0.052616   0.003275
      5      -0.000290   0.199320  -0.011046  -0.011260   0.009399  -0.027030
      6       0.786674   0.012700   0.099470  -0.435023  -0.200317   0.012474
      7       0.129277  -0.046367   0.042631   0.058264   0.023583  -0.092727
      8       0.004219   0.371688   0.002086   0.008945   0.004774   0.714285
      9      -0.199979  -0.603165  -0.125569  -0.376406  -0.473232   0.198186
     10      -0.285703  -0.111259  -0.180330  -0.311298   0.064451   0.437027
     11      -0.125195   0.146054  -0.086984   0.054262   0.417075   0.108019
     12      -0.213331   0.599832  -0.129892  -0.379254  -0.479578  -0.203398
     13      -0.311829   0.062682  -0.196940  -0.286314   0.167785  -0.440788
     14       0.049464   0.159534   0.039813  -0.124705  -0.378383  -0.008366
     15      -0.033328  -0.000732  -0.029838  -0.022078   0.010181  -0.000259
     16      -0.050009   0.004837  -0.098559   0.030017  -0.037833  -0.000901
     17      -0.006540  -0.036699  -0.013310   0.004474  -0.005420   0.005200
     18       0.055669  -0.000602  -0.053214  -0.063844   0.045639  -0.000427
     19      -0.056217   0.003936   0.175441  -0.010289   0.003955  -0.000135
     20      -0.008588  -0.027331   0.025096  -0.000490  -0.000152   0.001835
     21      -0.054778  -0.000721   0.375960  -0.258140   0.163597  -0.001301
     22       0.183331   0.005394  -0.804422   0.456077  -0.288479   0.002573
     23       0.027081  -0.038638  -0.116431   0.066849  -0.042429  -0.002720
                 18         19         20         21         22         23    
      0       0.060783  -0.043808   0.050670  -0.000825   0.021163   0.000667
      1       0.053578  -0.052541   0.003766   0.013213  -0.091599   0.000330
      2       0.005416  -0.006688   0.000628  -0.091366  -0.013460   0.000044
      3      -0.114638   0.253579  -0.002233  -0.000059   0.001558  -0.003063
      4       0.042043   0.685455  -0.000654   0.000059  -0.001414  -0.000226
      5       0.006817   0.091864  -0.000055  -0.000560  -0.000223   0.000013
      6      -0.568390  -0.186504  -0.020940  -0.001072   0.046749   0.001504
      7       0.079951  -0.041475  -0.488252  -0.015375   0.861555  -0.000680
      8       0.025825  -0.005083  -0.062499  -0.014797   0.110407  -0.000114
      9       0.184285   0.069946  -0.285059   0.338150  -0.153839  -0.001289
     10      -0.389388   0.032402   0.291121  -0.335531   0.146561   0.000670
     11      -0.342332  -0.040112  -0.465918   0.519651  -0.253840  -0.000176
     12       0.185235   0.074656  -0.271266  -0.326571  -0.158972  -0.001277
     13      -0.475391   0.024870   0.160766   0.192527   0.083601   0.000610
     14       0.229664   0.046755   0.521683   0.591895   0.304106   0.000294
     15       0.015821  -0.136112   0.000063   0.000004   0.000031   0.000248
     16      -0.005241  -0.435372  -0.000127  -0.000014   0.000538  -0.000809
     17      -0.000869  -0.058624  -0.000020   0.000154   0.000081  -0.000115
     18       0.031501  -0.006654   0.000033  -0.000003  -0.000302  -0.056140
     19      -0.007611  -0.064728   0.000184   0.000021   0.000450  -0.024047
     20      -0.001458  -0.008924   0.000025  -0.000182   0.000062  -0.002508
     21       0.089490  -0.191669  -0.001425   0.000022  -0.000384   0.916726
     22      -0.150569   0.380222  -0.001628   0.000127   0.000908   0.392661
     23      -0.021983   0.055629  -0.000180  -0.000939   0.000104   0.040947


-----------
IR SPECTRUM
-----------

 Mode   freq       eps      Int      T**2         TX        TY        TZ
       cm**-1   L/(mol*cm) km/mol    a.u.
----------------------------------------------------------------------------
  7:    431.02   0.000691    3.49  0.000500  ( 0.002223 -0.022029 -0.003201)
  8:    550.62   0.004172   21.08  0.002365  ( 0.000236 -0.006601  0.048176)
  9:    590.08   0.008502   42.96  0.004496  ( 0.065177 -0.015501 -0.002810)
 10:    713.86   0.021496  108.63  0.009397  ( 0.001337 -0.013329  0.096009)
 11:    868.69   0.000862    4.35  0.000310  (-0.013790 -0.010812 -0.001562)
 12:   1003.34   0.005936   30.00  0.001846  (-0.030881  0.029528  0.004556)
 13:   1050.49   0.001760    8.89  0.000523  ( 0.000573 -0.003096  0.022648)
 14:   1212.12   0.047634  240.72  0.012264  ( 0.088802 -0.065362 -0.010271)
 15:   1340.30   0.002833   14.32  0.000660  ( 0.021293 -0.014170 -0.002346)
 16:   1390.46   0.015041   76.01  0.003376  (-0.054117  0.020859  0.003459)
 17:   1450.16   0.001526    7.71  0.000328  ( 0.000761 -0.002126  0.017981)
 18:   1457.25   0.004925   24.89  0.001055  (-0.032344 -0.002879  0.000462)
 19:   1865.47   0.061383  310.21  0.010269  ( 0.014260  0.099386  0.013695)
 20:   3053.48   0.000148    0.75  0.000015  ( 0.003533  0.001603  0.000179)
 21:   3133.70   0.000343    1.73  0.000034  ( 0.000068  0.000932 -0.005769)
 22:   3169.81   0.001021    5.16  0.000100  (-0.002658 -0.009580 -0.001286)
 23:   3734.87   0.011988   60.58  0.001002  ( 0.031318  0.004563  0.000168)

* The epsilon (eps) is given for a Dirac delta lineshape.
** The dipole moment derivative (T) already includes vibrational overlap.

The first frequency considered to be a vibration is 7
The total number of vibrations considered is 17


--------------------------
THERMOCHEMISTRY AT 298.15K
--------------------------

Temperature         ...   298.15 K
Pressure            ...     1.00 atm
Total Mass          ...    60.05 AMU
Quasi RRHO          ...     True
Cut-Off Frequency   ...     1.00 cm^-1

Throughout the following assumptions are being made:
  (1) The electronic state is orbitally nondegenerate
  (2) There are no thermally accessible electronically excited states
  (3) Hindered rotations indicated by low frequency modes are not
      treated as such but are treated as vibrations and this may
      cause some error
  (4) All equations used are the standard statistical mechanics
      equations for an ideal gas
  (5) All vibrations are strictly harmonic

freq.     431.02  E(vib)   ...       0.18 
freq.     550.62  E(vib)   ...       0.12 
freq.     590.08  E(vib)   ...       0.10 
freq.     713.86  E(vib)   ...       0.07 
freq.     868.69  E(vib)   ...       0.04 
freq.    1003.34  E(vib)   ...       0.02 
freq.    1050.49  E(vib)   ...       0.02 
freq.    1212.12  E(vib)   ...       0.01 
freq.    1340.30  E(vib)   ...       0.01 
freq.    1390.46  E(vib)   ...       0.00 
freq.    1450.16  E(vib)   ...       0.00 
freq.    1457.25  E(vib)   ...       0.00 
freq.    1865.47  E(vib)   ...       0.00 
freq.    3053.48  E(vib)   ...       0.00 
freq.    3133.70  E(vib)   ...       0.00 
freq.    3169.81  E(vib)   ...       0.00 
freq.    3734.87  E(vib)   ...       0.00 

------------
INNER ENERGY
------------

The inner energy is: U= E(el) + E(ZPE) + E(vib) + E(rot) + E(trans)
    E(el)   - is the total energy from the electronic structure calculation
              = E(kin-el) + E(nuc-el) + E(el-el) + E(nuc-nuc)
    E(ZPE)  - the the zero temperature vibrational energy from the frequency calculation
    E(vib)  - the the finite temperature correction to E(ZPE) due to population
              of excited vibrational states
    E(rot)  - is the rotational thermal energy
    E(trans)- is the translational thermal energy

Summary of contributions to the inner energy U:
Electronic energy                ...   -228.79803045 Eh
Zero point energy                ...      0.06154624 Eh      38.62 kcal/mol
Thermal vibrational correction   ...      0.00091600 Eh       0.57 kcal/mol
Thermal rotational correction    ...      0.00141627 Eh       0.89 kcal/mol
Thermal translational correction ...      0.00141627 Eh       0.89 kcal/mol
-----------------------------------------------------------------------
Total thermal energy                   -228.73273566 Eh


Summary of corrections to the electronic energy:
(perhaps to be used in another calculation)
Total thermal correction                  0.00374855 Eh       2.35 kcal/mol
Non-thermal (ZPE) correction              0.06154624 Eh      38.62 kcal/mol
-----------------------------------------------------------------------
Total correction                          0.06529479 Eh      40.97 kcal/mol


--------
ENTHALPY
--------

The enthalpy is H = U + kB*T
                kB is Boltzmann's constant
Total thermal energy              ...   -228.73273566 Eh 
Thermal Enthalpy correction       ...      0.00094421 Eh       0.59 kcal/mol
-----------------------------------------------------------------------
Total Enthalpy                    ...   -228.73179145 Eh


Note: Only C1 symmetry has been detected, increase convergence thresholds 
      if your molecule has a higher symmetry. Symmetry factor of 1.0 is   
      used for the rotational entropy correction. 
 

Note: Rotational entropy computed according to Herzberg 
Infrared and Raman Spectra, Chapter V,1, Van Nostrand Reinhold, 1945 
Point Group:  C1, Symmetry Number:   1  
Rotational constants in cm-1:     0.379911     0.312717     0.177227 

Vibrational entropy computed according to the QRRHO of S. Grimme
Chem.Eur.J. 2012 18 9955 using a reference frequency of 100.0 cm-1


-------
ENTROPY
-------

The entropy contributions are T*S = T*(S(el)+S(vib)+S(rot)+S(trans))
     S(el)   - electronic entropy
     S(vib)  - vibrational entropy
     S(rot)  - rotational entropy
     S(trans)- translational entropy
The entropies will be listed as multiplied by the temperature to get
units of energy

Electronic entropy                ...      0.00000000 Eh      0.00 kcal/mol
Vibrational entropy               ...      0.00123421 Eh      0.77 kcal/mol
Rotational entropy                ...      0.01133336 Eh      7.11 kcal/mol
Translational entropy             ...      0.01814900 Eh     11.39 kcal/mol
-----------------------------------------------------------------------
Final entropy term                ...      0.03071657 Eh     19.27 kcal/mol

In case the symmetry of your molecule has not been determined correctly
or in case you have a reason to use a different symmetry number we print 
out the resulting rotational entropy values for sn=1,12:

 non-linear molecules -----------------------------------
|  sn= 1 | S(rot)=       0.01133336 Eh      7.11 kcal/mol|
|  sn= 2 | S(rot)=       0.01067891 Eh      6.70 kcal/mol|
|  sn= 3 | S(rot)=       0.01029607 Eh      6.46 kcal/mol|
|  sn= 4 | S(rot)=       0.01002445 Eh      6.29 kcal/mol|
|  sn= 5 | S(rot)=       0.00981376 Eh      6.16 kcal/mol|
|  sn= 6 | S(rot)=       0.00964162 Eh      6.05 kcal/mol|
|  sn= 7 | S(rot)=       0.00949607 Eh      5.96 kcal/mol|
|  sn= 8 | S(rot)=       0.00936999 Eh      5.88 kcal/mol|
|  sn= 9 | S(rot)=       0.00925878 Eh      5.81 kcal/mol|
|  sn=10 | S(rot)=       0.00915930 Eh      5.75 kcal/mol|
|  sn=11 | S(rot)=       0.00906931 Eh      5.69 kcal/mol|
|  sn=12 | S(rot)=       0.00898716 Eh      5.64 kcal/mol|
 linear molecules ---------------------------------------
|  Dinfh | S(rot)=       0.00695954 Eh      4.37 kcal/mol|
|  Cinfv | S(rot)=       0.00761400 Eh      4.78 kcal/mol|
 --------------------------------------------------------


-------------------
GIBBS FREE ENERGY
-------------------

The Gibbs free energy is G = H - T*S

Total enthalpy                    ...   -228.73179145 Eh 
Total entropy correction          ...     -0.03071657 Eh    -19.27 kcal/mol
-----------------------------------------------------------------------
Final Gibbs free energy         ...   -228.76250802 Eh

For completeness - the Gibbs free energy minus the electronic energy
G-E(el)                           ...      0.03552243 Eh     22.29 kcal/mol


Maximum memory used throughout the entire PROP-calculation: 17.5 MB

--------------------------------
SUGGESTED CITATIONS FOR THIS RUN
--------------------------------

Below you find a list of papers that are relevant to this ORCA run
We neither can nor want to force you to cite these papers, but we appreciate if you do
You receive ORCA, which is the product of decades of hard work by many enthusiastic individuals, for free
The only thing we kindly ask in return is that you cite our papers,
We deeply appreciate it, if you show your appreciation for ORCA by not just citing the generic ORCA reference.

Please note that relegating all ORCA citations to the supporting information does *not* help us.
SI sections are not indexed - citations you put there will not count into any citation statistics
But we need these citations in order to attract the funding resources that allow us to do what we are doing

Therefore, if you are a happy ORCA user, please consider citing a few of the papers listed below in the main body of your paper

In addition to the list printed below, the program has created the file .\AcOH.bibtex that contains the list in bibtex format
You can import this file easily into all common literature databanks and citation aid programs


List of essential papers. We consider these as the minimum necessary citations

  1. Neese, F.
     Software update: the ORCA program system, version 6.0
     WIRES Comput. Molec. Sci. 2025 15(1), e70019
     doi.org/10.1002/wcms.7019

List of papers to cite with high priority. The work reported in these papers was absolutely
necessary for this run to complete.
Our perspective: the developers of density functionals and basis sets usually get cited in chemistry papers
Good! But without the algorithms to do something with them, the functionals or basis sets would not do anything.
Hence, in our opinion, the algorithm design and method developments papers are equally worthy of getting cited

  1. Neese, F.
     An improvement of the resolution of the identity approximation for the formation of the Coulomb matrix
     J. Comp. Chem. 2003 24(14), 1740-1747
     doi.org/10.1002/jcc.10318
  2. Neese, F.; Wennmohs, F.; Hansen, A.; Becker, U.
     Efficient, approximate and parallel Hartree-Fock and hybrid DFT calculations. A 'chain-of-spheres' algorithm for the Hartree-Fock exchange
     Chem. Phys. 2009 356(1-3), 98-109
     doi.org/10.1016/j.chemphys.2008.10.036
  3. Bykov, D.; Petrenko, T.; Izsak, R.; Kossmann, S.; Becker, U.; Valeev, E.; Neese, F.
     Efficient implementation of the analytic second derivatives of Hartree-Fock and hybrid DFT energies: a detailed analysis of different approximations
     Molec. Phys. 2015 113 , 1961-1977
     doi.org/10.1080/00268976.2015.1025114
  4. Helmich-Paris, B.; de Souza, B.; Neese, F.; Izs??k, R.
     An improved chain of spheres for exchange algorithm
     J. Chem. Phys. 2021 155(10), 104109
     doi.org/10.1063/5.0058766
  5. Neese, F.
     The SHARK Integral Generation and Digestion System
     J. Comp. Chem. 2022 44(3), 381
     doi.org/10.1002/jcc.26942

List of suggested additional citations. These are papers that are important in the 'surrounding' of 
of this run, or papers that preceded the highly important papers. If you like your results we are grateful for a citation.

  1. Izsak, R.; Neese, F.
     An overlap fitted chain of spheres exchange method
     J. Chem. Phys. 2011 135 , 144105
     doi.org/10.1063/1.3646921
  2. Izsak, R.; Hansen, A.; Neese, F.
     The resolution of identity and chain of spheres approximations for the LPNO-CCSD singles Fock term
     Molec. Phys. 2012 110 , 2413-2417
     doi.org/10.1080/00268976.2012.687466
  3. Neese, F.
     The ORCA program system
     WIRES Comput. Molec. Sci. 2012 2(1), 73-78
     doi.org/10.1002/wcms.81
  4. Izsak, R.; Neese, F.; Klopper, W.
     Robust fitting techniques in the chain of spheres approximation to the Fock exchange: The role of the complementary space
     J. Chem. Phys. 2013 139 , 
     doi.org/10.1063/1.4819264
  5. Neese, F.
     Software update: the ORCA program system, version 4.0
     WIRES Comput. Molec. Sci. 2018 8(1), 1-6
     doi.org/10.1002/wcms.1327
  6. Neese, F.; Wennmohs, F.; Becker, U.; Riplinger, C.
     The ORCA quantum chemistry program package
     J. Chem. Phys. 2020 152(22), 224108
     doi.org/10.1063/5.0004608
  7. Neese, F.
     Software update: The ORCA program system???Version 5.0
     WIRES Comput. Molec. Sci. 2022 12(1), e1606
     doi.org/10.1002/wcms.1606

List of optional additional citations

  1. Neese, F.
     Approximate second-order SCF convergence for spin unrestricted wavefunctions
     Chem. Phys. Lett. 2000 325(1-3), 93-98
     doi.org/10.1016/s0009-2614(00)00662-x

Timings for individual modules:

Sum of individual times          ...      155.874 sec (=   2.598 min)
Startup calculation              ...        3.377 sec (=   0.056 min)   2.2 %
SCF iterations                   ...       45.266 sec (=   0.754 min)  29.0 %
Property integrals               ...       10.778 sec (=   0.180 min)   6.9 %
SCF Response                     ...       16.208 sec (=   0.270 min)  10.4 %
Property calculations            ...       49.301 sec (=   0.822 min)  31.6 %
SCF Gradient evaluation          ...       30.850 sec (=   0.514 min)  19.8 %
Geometry relaxation              ...        0.094 sec (=   0.002 min)   0.1 %
                             ****ORCA TERMINATED NORMALLY****
TOTAL RUN TIME: 0 days 0 hours 2 minutes 36 seconds 591 msec
