
                                 *****************
                                 * O   R   C   A *
                                 *****************

                                            #,                                       
                                            ###                                      
                                            ####                                     
                                            #####                                    
                                            ######                                   
                                           ########,                                 
                                     ,,################,,,,,                         
                               ,,#################################,,                 
                          ,,##########################################,,             
                       ,#########################################, ''#####,          
                    ,#############################################,,   '####,        
                  ,##################################################,,,,####,       
                ,###########''''           ''''###############################       
              ,#####''   ,,,,##########,,,,          '''####'''          '####       
            ,##' ,,,,###########################,,,                        '##       
           ' ,,###''''                  '''############,,,                           
         ,,##''                                '''############,,,,        ,,,,,,###''
      ,#''                                            '''#######################'''  
     '                                                          ''''####''''         
             ,#######,   #######,   ,#######,      ##                                
            ,#'     '#,  ##    ##  ,#'     '#,    #''#        ,####,    ,#,          
            ##       ##  ##   ,#'  ##            #'  '#       #'       ,# #          
            ##       ##  #######   ##           ,######,      #####,      #          
            '#,     ,#'  ##    ##  '#,     ,#' ,#      #,     #,   #      #          
             '#######'   ##     ##  '#######'  #'      '#     '####' #    #          



                #########################################################
                #                        -***-                          #
                #          Department of theory and spectroscopy        #
                #                                                       #
                #                      Frank Neese                      #
                #                                                       #
                #     Directorship, Architecture, Infrastructure        #
                #                    SHARK, DRIVERS                     #
                #        Core code/Algorithms in most modules           #
                #                                                       #
                #        Max Planck Institute fuer Kohlenforschung      #
                #                Kaiser Wilhelm Platz 1                 #
                #                 D-45470 Muelheim/Ruhr                 #
                #                      Germany                          #
                #                                                       #
                #                  All rights reserved                  #
                #                        -***-                          #
                #########################################################


                         Program Version 6.1.0-f.0  -   RELEASE   -


 With contributions from (in alphabetic order):
[Max-Planck-Institut fuer Kohlenforschung]                               
  Daniel Aravena         : Magnetic Suceptibility                        
  Michael Atanasov       : Ab Initio Ligand Field Theory (pilot matlab implementation)
  Alexander A. Auer      : GIAO ZORA, VPT2 properties, NMR spectrum      
  Ute Becker             : All parallelization in ORCA, NUMFREQ, NUMCALC 
  Giovanni Bistoni       : ED, misc. LED, open-shell LED, HFLD           
  Dmytro Bykov           : pre 5.0 version of the SCF Hessian            
  Marcos Casanova-Páez   : Triplet and SCS-CIS(D). UHF-(DLPNO)-IP/EA/STEOM-CCSD. UHF-CVS-IP/STEOM-CCSD   
  Vijay G. Chilkuri      : MRCI spin determinant printing, contributions to CSF-ICE 
  Pauline Colinet        : FMM embedding                                 
  Dipayan Datta          : RHF DLPNO-CCSD density                        
  Achintya Kumar Dutta   : EOM-CC, STEOM-CC                              
  Nicolas Foglia         : Exact transition moments, OPA infrastructure, MCD improvements    
  Dmitry Ganyushin       : Spin-Orbit,Spin-Spin,Magnetic field MRCI      
  Miquel Garcia-Rates    : C-PCM and meta-GGA Hessian, CCSD/C-PCM, Gaussian charge scheme 
  Tiago L. C. Gouveia    : GS-ROHF, GS-ROCIS                             
  Yang Guo               : DLPNO-NEVPT2, F12-NEVPT2, CIM, IAO-localization        
  Andreas Hansen         : Spin unrestricted coupled pair/coupled cluster methods 
  Ingolf Harden          : AUTO-CI MPn and infrastructure                
  Benjamin Helmich-Paris : MC-RPA, TRAH-(SCF,CASSCF), AVAS, COSX integrals, SCF dyn. polar., MC-PDFT, srDFT 
  Lee Huntington         : MR-EOM, pCC                                   
  Robert Izsak           : Overlap fitted RIJCOSX, COSX-SCS-MP3, EOM     
  Riya Kayal             : Wick's Theorem for AUTO-CI, AUTO-CI UHF-CCSDT 
  Emily Kempfer          : AUTO-CI RHF CISDT and CCSDT, approximate NEVPT4
  Christian Kollmar      : KDIIS, OOCD, Brueckner-CCSD(T), CCSD density, CASPT2, CASPT2-K, improved NEVPT2 
  Axel Koslowski         : Symmetry handling                             
  Simone Kossmann        : meta-GGA functionals, TD-DFT gradient, OOMP2, (MP2 Hessian; deprecated post 5.0) 
  Lucas Lang             : DCDCAS, Hyperfine gauge corrections, ICE-SOC+SSC
  Marvin Lechner         : AUTO-CI (C++ implementation), FIC-MRCC        
  Spencer Leger          : CASSCF response                               
  Dagmar Lenk            : GEPOL surface, SMD, ORCA-2-JSON               
  Dimitrios Liakos       : Extrapolation schemes; Compound Job, Property file
  Dimitrios Manganas     : Further ROCIS development; embedding schemes. LFT, Crystal Embedding 
  Dimitrios Pantazis     : SARC Basis sets                               
  Anastasios Papadopoulos: AUTO-CI, single reference methods and gradients 
  Taras Petrenko         : pre 6.0 DFT Hessian and TD-DFT gradient,  ECA, NRVS 
  Petra Pikulova         : Analytic Raman intensities                    
  Peter Pinski           : DLPNO-MP2, DLPNO-MP2 Gradient                 
  Shashank Vittal Rao    : ES-AILFT, MagRelax                            
  Christoph Reimann      : Effective Core Potentials                     
  Marius Retegan         : Local ZFS, SOC                                
  Christoph Riplinger    : Optimizer, TS searches, QM/MM, DLPNO-CCSD(T), (RO)-DLPNO pert. Triples 
  Michael Roemelt        : Original ROCIS implementation, recursive CI coupling coefficients
  Masaaki Saitow         : Open-shell DLPNO-CCSD energy and density      
  Barbara Sandhoefer     : DKH picture change effects                    
  Yorick L. A. Schmerwitz: GMF and freeze-and-release deltaSCF, NEB S-IDPP initial path                    
  Kantharuban Sivalingam : CASSCF convergence/infrastructure, NEVPT2, NEVPT3, NEVPT4(SD), FIC-MRCI and CEPA variants
  Bernardo de Souza      : ESD, SOC TD-DFT                               
  Georgi L. Stoychev     : AutoAux, RI-MP2 NMR, DLPNO-MP2 response, X2C  
  Van Anh Tran           : RI-MP2 g-tensors                              
  Willem Van den Heuvel  : Paramagnetic NMR                              
  Zikuan Wang            : NOTCH, Electric field optimization            
  Frank Wennmohs         : Technical directorship and infrastructure     
  Hang Xu                : AUTO-CI-Response properties                   
                                                                         
[FACCTs GmbH]                                                            
  Markus Bursch, Nicolas Foglia, Miquel Garcia-Rates, Ingolf Harden, Hagen Neugebauer, Anastasios Papadopoulos, 
  Christoph Riplinger, Bernardo de Souza, Georgi L. Stoychev                                                    
                                                                 
  APM, various basis sets, CI-OPT, improved COSX, DLPNO-Multilevel,           
  DOCKER, DRACO, updates on ESD, Fragmentator, GOAT, IRC, LR-CPCM, L-BFGS, MBIS, meta-GGA TD-DFT gradient, ML-optimized integration grids, 
  MM, NACMEs, nearIR, NEB, NEB-TS, NL-DFT gradient (VV10), 2- and 3-layer-ONIOM, interface openCOSMO-RS, QMMM,   
  Crystal-QMMM, RESP, rigid body optimization, SF, symmetry and pop. for TD-DFT, various functionals, SOLVATOR                                   
                                                                         
[Other institutions]                                                     
  V. Asgeirsson          : NEB                                           
  Christoph Bannwarth    : sTDA-DFT, sTD-DFT, PBEh-3c, B97-3c, D3        
  Giovanni Bistoni       : ETS/NOCV, ADLD/ADEX, COVALED                  
  Martin Brehm           : Molecular dynamics                            
  Ronald Cardenas        : ETS/NOCV                                      
  Martina Colucci        : COVALED                                       
  Sebastian Ehlert       : rSCAN, r2SCAN, r2SCAN-3c, D4, dhf basis sets  
  Marvin Friede          : D4 for Fr, Ra, Ac-Lr                          
  Lars Goerigk           : TD-DFT with DH, B97 family of functionals     
  Stefan Grimme          : VdW corrections, initial TS optimization, DFT functionals, gCP, sTDA/sTD-DF 
  Waldemar Hujo          : DFT-NL                                        
  H. Jonsson             : NEB                                           
  Holger Kruse           : gCP                                           
  Marcel Mueller         : wB97X-3c, vDZP basis set                      
  Hagen Neugebauer       : wr2SCAN, Native XTB                           
  Gianluca Regni         : ADLD/ADEX                                     
  Tobias Risthaus        : pre 6.0 range-separated hybrid DFT and stability analysis
  Lukas Wittmann         : regularized MP2, r2SCAN double-hybrids, wr2SCAN        
                                                                         
We gratefully acknowledge several colleagues who have allowed us to      
interface, adapt or use parts of their codes:                            
  Ed Valeev, F. Pavosevic, A. Kumar             : LibInt (2-el integral package), F12 methods 
  Garnet Chan, S. Sharma, J. Yang, R. Olivares  : DMRG                   
  Ulf Ekstrom                                   : XCFun DFT Library      
  Mihaly Kallay                                 : mrcc  (arbitrary order and MRCC methods)
  Frank Weinhold                                : gennbo (NPA and NBO analysis)           
  Simon Mueller                                 : openCOSMO-RS                            
  Christopher J. Cramer and Donald G. Truhlar   : smd solvation model                     
  S Lehtola, MJT Oliveira, MAL Marques          : LibXC Library                           
  Liviu Ungur et al                             : ANISO software                          


 Your calculation uses the libint2 library for the computation of 2-el integrals
 For citations please refer to: http://libint.valeyev.net

 Your ORCA version has been built with support for libXC version: 7.0.0
 For citations please refer to: https://libxc.gitlab.io

 This ORCA versions uses:
   CBLAS   interface :  Fast vector & matrix operations
   LAPACKE interface :  Fast linear algebra routines
   SCALAPACK package :  Parallel linear algebra routines
   Shared memory     :  Shared parallel matrices
   BLAS/LAPACK       :  OpenBLAS 0.3.29  USE64BITINT DYNAMIC_ARCH NO_AFFINITY Cooperlake SINGLE_THREADED
        Core in use  :  Cooperlake
   Copyright (c) 2011-2014, The OpenBLAS Project


  ***********************************
  * Starting time: Thu Jul 17 17:31:23 2025
  * Host name:     abcsim-001
  * Process ID:    528348
  * Working dir.:  /home/vhpaschoal/orca_test
  ***********************************

Warning: RI is on but no J-basis has been assigned. Assigning Def2/J (nothing to worry about!)
================================================================================

----- Orbital basis set information -----
Your calculation utilizes the basis: def2-SVP
   F. Weigend and R. Ahlrichs, Phys. Chem. Chem. Phys. 7, 3297 (2005).

----- AuxJ basis set information -----
Your calculation utilizes the auxiliary basis: def2/J
   H-Rn: F. Weigend, Phys. Chem. Chem. Phys. 8, 1057 (2006).
   Fr-Lr: K. Eichkorn, F. Weigend, O. Treutler, R. Ahlrichs; Theor. Chem. Acc. 97, 119 (1997).

================================================================================
                                        WARNINGS
                       Please study these warnings very carefully!
================================================================================

WARNING: Old DensityContainer found on disk!
         Will remove this file - 
         If you want to keep old densities, please start your calculation with a different basename. 


================================================================================
 STARTING AUTOMATIC FRAGMENTATION: 
================================================================================

WARNING: Geometry Optimization
  ===> : Switching off AutoStart
         For restart on a previous wavefunction, please use MOREAD

WARNING: Found SCFConvIgnored == true
  ===> : Will try to continue after any unconverged SCF -
         no matter how far from convergence the wavefunction might be.

         Please be very careful with your results!


================================================================================
                                       INPUT FILE
================================================================================
NAME = AcOH.inp
|  1> # avogadro generated ORCA file
|  2> # C2H4O2 | Geometry Optimization | revPBE/def2-TZVP
|  3> # 
|  4> ! GOAT B3LYP def2-SVP pal16
|  5> 
|  6> * xyz 0 1
|  7>    H      1.425512   -0.104692    0.759917
|  8>    C      0.919998   -0.195689   -0.199717
|  9>    H      1.243492    0.643840   -0.812276
| 10>    H      1.199341   -1.127655   -0.675648
| 11>    C     -0.564002   -0.152752   -0.007380
| 12>    O     -1.348430   -1.014984   -0.326304
| 13>    O     -0.955416    1.004508    0.588355
| 14>    H     -1.920496    0.947435    0.673043
| 15> *
| 16> 
| 17> 
| 18> 
| 19>                          ****END OF INPUT****
================================================================================

                       *****************************
                       * Geometry Optimization Run *
                       *****************************


                       *********************************
                       *              GOAT             *
                       * Global Optimization Algorithm *
                       *********************************

Geometry optimization settings:
Update method            Update   .... BFGS
Choice of coordinates    CoordSys .... (2022) Redundant Internals
Initial Hessian          InHess   .... Almloef's Model
Max. no of cycles        MaxIter  .... 50

Convergence Tolerances:
Energy Change            TolE     ....  5.0000e-06 Eh
Max. Gradient            TolMAXG  ....  3.0000e-04 Eh/bohr
RMS Gradient             TolRMSG  ....  1.0000e-04 Eh/bohr
Max. Displacement        TolMAXD  ....  4.0000e-03 bohr
RMS Displacement         TolRMSD  ....  2.0000e-03 bohr
Strict Convergence                .... True

------------------------------------------------------------------------------
                        ORCA OPTIMIZATION COORDINATE SETUP
------------------------------------------------------------------------------

The optimization will be done in redundant internal coordinates (2022)
Making redundant internal coordinates   ...  (2022 redundants) done
Evaluating the initial hessian          ...  (Almloef) done
Evaluating the coordinates              ...  done
Calculating the B-matrix                .... done
Calculating the G-matrix                .... done
The number of degrees of freedom        ....   24

    -----------------------------------------------------------------
                    Redundant Internal Coordinates


    -----------------------------------------------------------------
         Definition                    Initial Value    Approx d2E/dq
    -----------------------------------------------------------------
      1. B(C   1,H   0)                  1.0884         0.362157   
      2. B(H   2,C   1)                  1.0884         0.362179   
      3. B(H   3,C   1)                  1.0831         0.369346   
      4. B(C   4,C   1)                  1.4970         0.421679   
      5. B(O   5,C   4)                  1.2085         1.090033   
      6. B(O   6,C   4)                  1.3592         0.626694   
      7. B(H   7,O   6)                  0.9705         0.500340   
      8. A(H   0,C   1,H   2)          107.0776         0.291363   
      9. A(H   0,C   1,C   4)          110.1648         0.331171   
     10. A(H   2,C   1,C   4)          110.1701         0.331175   
     11. A(H   0,C   1,H   3)          109.8504         0.292263   
     12. A(H   3,C   1,C   4)          109.6821         0.332251   
     13. A(H   2,C   1,H   3)          109.8609         0.292266   
     14. A(C   1,C   4,O   5)          126.0912         0.445358   
     15. A(O   5,C   4,O   6)          122.4269         0.475585   
     16. A(C   1,C   4,O   6)          111.4819         0.403397   
     17. A(C   4,O   6,H   7)          105.9356         0.368358   
     18. D(O   5,C   4,C   1,H   2)    121.0815         0.013145   
     19. D(O   5,C   4,C   1,H   0)   -121.0025         0.013145   
     20. D(O   6,C   4,C   1,H   0)     58.9828         0.013145   
     21. D(O   6,C   4,C   1,H   2)    -58.9332         0.013145   
     22. D(O   5,C   4,C   1,H   3)      0.0313         0.013145   
     23. D(H   7,O   6,C   4,O   5)     -0.0124         0.028860   
     24. D(H   7,O   6,C   4,C   1)   -179.9983         0.028860   
    -----------------------------------------------------------------

Number of atoms                         .... 8
Number of degrees of freedom            .... 24


         *************************************************************
         *                GEOMETRY OPTIMIZATION CYCLE   1            *
         *************************************************************
---------------------------------
CARTESIAN COORDINATES (ANGSTROEM)
---------------------------------
  H      1.425512   -0.104692    0.759917
  C      0.919998   -0.195689   -0.199717
  H      1.243492    0.643840   -0.812276
  H      1.199341   -1.127655   -0.675648
  C     -0.564002   -0.152752   -0.007380
  O     -1.348430   -1.014984   -0.326304
  O     -0.955416    1.004508    0.588355
  H     -1.920496    0.947435    0.673043

----------------------------
CARTESIAN COORDINATES (A.U.)
----------------------------
  NO LB      ZA    FRAG     MASS         X           Y           Z
   0 H     1.0000    1     1.008    2.693827   -0.197839    1.436035
   1 C     6.0000    1    12.011    1.738544   -0.369799   -0.377410
   2 H     1.0000    1     1.008    2.349859    1.216681   -1.534979
   3 H     1.0000    1     1.008    2.266426   -2.130959   -1.276790
   4 C     6.0000    1    12.011   -1.065809   -0.288659   -0.013946
   5 O     8.0000    1    15.999   -2.548163   -1.918042   -0.616625
   6 O     8.0000    1    15.999   -1.805475    1.898245    1.111830
   7 H     1.0000    1     1.008   -3.629211    1.790393    1.271867

----------------------------------------------
CARTESIAN COORDINATES OF FRAGMENTS (ANGSTROEM)
----------------------------------------------

 FRAGMENT 1 
  H     1.425512   -0.104692    0.759917
  C     0.919998   -0.195689   -0.199717
  H     1.243492    0.643840   -0.812276
  H     1.199341   -1.127655   -0.675648
  C    -0.564002   -0.152752   -0.007380
  O    -1.348430   -1.014984   -0.326304
  O    -0.955416    1.004508    0.588355
  H    -1.920496    0.947435    0.673043

--------------------------------
INTERNAL COORDINATES (ANGSTROEM)
--------------------------------
 H      0   0   0     0.000000000000     0.00000000     0.00000000
 C      1   0   0     1.088449480757     0.00000000     0.00000000
 H      2   1   0     1.088432744067   107.07755079     0.00000000
 H      2   1   3     1.083099004508   109.85043555   119.25970889
 C      2   1   3     1.497028091766   110.16478486   240.19272949
 O      5   2   1     1.208504789723   126.09117435   238.99752772
 O      5   2   1     1.359174682379   111.48187767    58.98282853
 H      7   5   2     0.970468335946   105.93555113   180.00169157

---------------------------
INTERNAL COORDINATES (A.U.)
---------------------------
 H      0   0   0     0.000000000000     0.00000000     0.00000000
 C      1   0   0     2.056871429240     0.00000000     0.00000000
 H      2   1   0     2.056839801480   107.07755079     0.00000000
 H      2   1   3     2.046760494443   109.85043555   119.25970889
 C      2   1   3     2.828973108225   110.16478486   240.19272949
 O      5   2   1     2.283743084109   126.09117435   238.99752772
 O      5   2   1     2.568467917856   111.48187767    58.98282853
 H      7   5   2     1.833919376579   105.93555113   180.00169157

---------------------
BASIS SET INFORMATION
---------------------
There are 3 groups of distinct atoms

 Group   1 Type H   : 4s1p contracted to 2s1p pattern {31/1}
 Group   2 Type C   : 7s4p1d contracted to 3s2p1d pattern {511/31/1}
 Group   3 Type O   : 7s4p1d contracted to 3s2p1d pattern {511/31/1}

Atom   0H    basis set group =>   1
Atom   1C    basis set group =>   2
Atom   2H    basis set group =>   1
Atom   3H    basis set group =>   1
Atom   4C    basis set group =>   2
Atom   5O    basis set group =>   3
Atom   6O    basis set group =>   3
Atom   7H    basis set group =>   1
---------------------------------
AUXILIARY/J BASIS SET INFORMATION
---------------------------------
There are 3 groups of distinct atoms

 Group   1 Type H   : 5s2p1d contracted to 3s1p1d pattern {311/2/1}
 Group   2 Type C   : 12s5p4d2f1g contracted to 6s4p3d1f1g pattern {711111/2111/211/2/1}
 Group   3 Type O   : 12s5p4d2f1g contracted to 6s4p3d1f1g pattern {711111/2111/211/2/1}

Atom   0H    basis set group =>   1
Atom   1C    basis set group =>   2
Atom   2H    basis set group =>   1
Atom   3H    basis set group =>   1
Atom   4C    basis set group =>   2
Atom   5O    basis set group =>   3
Atom   6O    basis set group =>   3
Atom   7H    basis set group =>   1


           ************************************************************
           *        Program running with 16 parallel MPI-processes    *
           *              working on a common directory               *
           ************************************************************
------------------------------------------------------------------------------
                             ORCA STARTUP CALCULATIONS
                           -- RI-GTO INTEGRALS CHOSEN --
------------------------------------------------------------------------------
------------------------------------------------------------------------------
                   ___                                                        
                  /   \      - P O W E R E D   B Y -                         
                 /     \                                                     
                 |  |  |   _    _      __       _____    __    __             
                 |  |  |  | |  | |    /  \     |  _  \  |  |  /  |          
                  \  \/   | |  | |   /    \    | | | |  |  | /  /          
                 / \  \   | |__| |  /  /\  \   | |_| |  |  |/  /          
                |  |  |   |  __  | /  /__\  \  |    /   |      \           
                |  |  |   | |  | | |   __   |  |    \   |  |\   \          
                \     /   | |  | | |  |  |  |  | |\  \  |  | \   \       
                 \___/    |_|  |_| |__|  |__|  |_| \__\ |__|  \__/        
                                                                              
                      - O R C A' S   B I G   F R I E N D -                    
                                      &                                       
                       - I N T E G R A L  F E E D E R -                       
                                                                              
 v1 FN, 2020, v2 2021, v3 2022-2024                                           
------------------------------------------------------------------------------


----------------------
SHARK INTEGRAL PACKAGE
----------------------

Number of atoms                             ...      8
Number of basis functions                   ...     76
Number of shells                            ...     36
Maximum angular momentum                    ...      2
Integral batch strategy                     ... SHARK/LIBINT Hybrid
RI-J (if used) integral strategy            ... SPLIT-RIJ (Revised 2003 algorithm where possible)
Printlevel                                  ...      1
Contraction scheme used                     ... SEGMENTED contraction
Prescreening option                         ... SCHWARTZ
   Thresh                                   ... 2.500e-11
   Tcut                                     ... 2.500e-12
   Tpresel                                  ... 2.500e-12 
Coulomb Range Separation                    ... NOT USED
Exchange Range Separation                   ... NOT USED
Multipole approximations                    ... NOT USED
Finite Nucleus Model                        ... NOT USED
CABS basis                                  ... NOT available
Auxiliary Coulomb fitting basis             ... AVAILABLE
   # of basis functions in Aux-J            ...    240
   # of shells in Aux-J                     ...     80
   Maximum angular momentum in Aux-J        ...      4
Auxiliary J/K fitting basis                 ... NOT available
Auxiliary Correlation fitting basis         ... NOT available
Auxiliary 'external' fitting basis          ... NOT available

Checking pre-screening integrals            ... done (  0.0 sec) Dimension = 36
   => SHARK Basis and OBASIS are compatible. Storing Pre-screening
Shell pair information
Shell pair cut-off parameter TPreSel        ...   2.5e-12
Total number of shell pairs                 ...       666
Shell pairs after pre-screening             ...       662
Total number of primitive shell pairs       ...      2410
Primitive shell pairs kept                  ...      1992
          la=0 lb=0:    207 shell pairs
          la=1 lb=0:    239 shell pairs
          la=1 lb=1:     78 shell pairs
          la=2 lb=0:     80 shell pairs
          la=2 lb=1:     48 shell pairs
          la=2 lb=2:     10 shell pairs

Checking whether 4 symmetric matrices of dimension 76 fit in memory
:Max Core in MB      =   4096.00
 MB in use           =      4.11
 MB left             =   4091.89
 MB needed           =      0.09
 Data fit in memory  = YES
Calculating RI/J V-Matrix + Cholesky decomp.... done (  0.0 sec)
Calculating Nuclear repulsion               ... done (  0.0 sec) ENN=    121.097917322150 Eh

Diagonalization of the overlap matrix:
Smallest eigenvalue                        ... 3.466e-03
Time for diagonalization                   ...    0.000 sec
Threshold for overlap eigenvalues          ... 1.000e-07
Number of eigenvalues below threshold      ... 0
Time for construction of square roots      ...    0.000 sec
Total time needed                          ...    0.001 sec

-------------------
DFT GRID GENERATION
-------------------

General Integration Accuracy     IntAcc      ... 4.388
Radial Grid Type                 RadialGrid  ... OptM3 with GC (2021)
Angular Grid (max. ang.)         AngularGrid ... 4 (Lebedev-302)
Angular grid pruning method      GridPruning ... 4 (adaptive)
Weight generation scheme         WeightScheme... mBecke (2022)
Basis function cutoff            BFCut       ... 1.0000e-11
Integration weight cutoff        WCut        ... 1.0000e-14
Partially contracted basis set               ... off
Rotationally invariant grid construction     ... off
Angular grids for H and He will be reduced by one unit

Total number of grid points                  ...    37389
Total number of batches                      ...      588
Average number of points per batch           ...       63
Average number of grid points per atom       ...     4674

--------------------
COSX GRID GENERATION
--------------------

GRIDX 1
-------
General Integration Accuracy     IntAcc      ... 3.816
Radial Grid Type                 RadialGrid  ... OptM3 with GC (2021)
Angular Grid (max. ang.)         AngularGrid ... 1 (Lebedev-50)
Angular grid pruning method      GridPruning ... 4 (adaptive)
Weight generation scheme         WeightScheme... mBecke (2022)
Basis function cutoff            BFCut       ... 1.0000e-11
Integration weight cutoff        WCut        ... 1.0000e-14
Partially contracted basis set               ... on
Rotationally invariant grid construction     ... off
Angular grids for H and He will be reduced by one unit

Total number of grid points                  ...     4802
Total number of batches                      ...       42
Average number of points per batch           ...      114
Average number of grid points per atom       ...      600
UseSFitting                                  ... on

GRIDX 2
-------
General Integration Accuracy     IntAcc      ... 4.020
Radial Grid Type                 RadialGrid  ... OptM3 with GC (2021)
Angular Grid (max. ang.)         AngularGrid ... 2 (Lebedev-110)
Angular grid pruning method      GridPruning ... 4 (adaptive)
Weight generation scheme         WeightScheme... mBecke (2022)
Basis function cutoff            BFCut       ... 1.0000e-11
Integration weight cutoff        WCut        ... 1.0000e-14
Partially contracted basis set               ... on
Rotationally invariant grid construction     ... off
Angular grids for H and He will be reduced by one unit

Total number of grid points                  ...    10550
Total number of batches                      ...       87
Average number of points per batch           ...      121
Average number of grid points per atom       ...     1319
UseSFitting                                  ... on

GRIDX 3
-------
General Integration Accuracy     IntAcc      ... 4.338
Radial Grid Type                 RadialGrid  ... OptM3 with GC (2021)
Angular Grid (max. ang.)         AngularGrid ... 3 (Lebedev-194)
Angular grid pruning method      GridPruning ... 4 (adaptive)
Weight generation scheme         WeightScheme... mBecke (2022)
Basis function cutoff            BFCut       ... 1.0000e-11
Integration weight cutoff        WCut        ... 1.0000e-14
Partially contracted basis set               ... on
Rotationally invariant grid construction     ... off
Angular grids for H and He will be reduced by one unit

Total number of grid points                  ...    23307
Total number of batches                      ...      186
Average number of points per batch           ...      125
Average number of grid points per atom       ...     2913
UseSFitting                                  ... on
Grids setup in   0.2 sec
Initializing property integral containers    ... done (  0.0 sec)

SHARK setup successfully completed in   0.2 seconds

Maximum memory used throughout the entire STARTUP-calculation: 11.2 MB


           ************************************************************
           *        Program running with 16 parallel MPI-processes    *
           *              working on a common directory               *
           ************************************************************
-------------------------------------------------------------------------------
                                 ORCA GUESS
                   Start orbitals & Density for SCF / CASSCF
-------------------------------------------------------------------------------

------------
SCF SETTINGS
------------
Hamiltonian:
 Density Functional     Method          .... DFT(GTOs)
 Exchange Functional    Exchange        .... B88
   X-Alpha parameter    XAlpha          ....  0.666667
   Becke's b parameter  XBeta           ....  0.004200
 Correlation Functional Correlation     .... LYP
 LDA part of GGA corr.  LDAOpt          .... VWN-5
 Gradients option       PostSCFGGA      .... off
 Hybrid DFT is turned on
   Fraction HF Exchange ScalHFX         ....  0.200000
   Scaling of DF-GGA-X  ScalDFX         ....  0.720000
   Scaling of DF-GGA-C  ScalDFC         ....  0.810000
   Scaling of DF-LDA-C  ScalLDAC        ....  1.000000
   Perturbative correction              ....  0.000000
   NL short-range parameter             ....  4.800000
 RI-approximation to the Coulomb term is turned on
   Number of AuxJ basis functions       .... 240
   RIJ-COSX (HFX calculated with COS-X)).... on


General Settings:
 Integral files         IntName         .... AcOH
 Hartree-Fock type      HFTyp           .... RHF
 Total Charge           Charge          ....    0
 Multiplicity           Mult            ....    1
 Number of Electrons    NEL             ....   32
 Basis Dimension        Dim             ....   76
 Nuclear Repulsion      ENuc            ....    121.0979173222 Eh

Convergence Acceleration:
 AO-DIIS                CNVDIIS         .... on
   Start iteration      DIISMaxIt       ....    12
   Startup error        DIISStart       ....  0.200000
   # of expansion vecs  DIISMaxEq       ....     5
   Bias factor          DIISBfac        ....   1.050
   Max. coefficient     DIISMaxC        ....  10.000
 MO-DIIS                CNVKDIIS        .... off
 Trust-Rad. Augm. Hess. CNVTRAH         .... auto
   Auto Start mean grad. ratio tolernc. ....  1.125000
   Auto Start start iteration           ....    50
   Auto Start num. interpolation iter.  ....    10
   Max. Number of Micro iterations      ....    24
   Max. Number of Macro iterations      .... Maxiter - #DIIS iter
   Number of Davidson start vectors     ....     2
   Converg. threshold    (grad. norm)   ....   1.000e-05
   Grad. Scal. Fac. for Micro threshold ....   0.100
   Minimum threshold for Micro iter.    ....   1.000e-02
   NR start threshold (gradient norm)   ....   1.000e-04
   Initial trust radius                 ....   0.400
   Minimum AH scaling param. (alpha)    ....   1.000
   Maximum AH scaling param. (alpha)    .... 1000.000
   Quad. conv. algorithm                .... NR
   White noise on init. David. guess    .... on
   Maximum white noise                  ....   0.010
   Pseudo random numbers                .... off
   Inactive MOs                         .... canonical
   Orbital update algorithm             .... Taylor
   Preconditioner                       .... Diag
   Full preconditioner red. dimension   ....   250
 SOSCF                 CNVSOSCF           .... on
   Start iteration     SOSCFMaxIt         ....   150
   Startup grad/error  SOSCFStart         ....  0.003300
   Hessian update      SOSCFHessUp        .... L-BFGS
   Autom. constraints  SOSCFAutoConstrain .... off
 Level Shifting         CNVShift        .... on
   Level shift para.    LevelShift      ....    0.2500
   Turn off err/grad.   ShiftErr        ....    0.0010
 Zerner damping         CNVZerner       .... off
 Static damping         CNVDamp         .... on
   Fraction old density DampFac         ....    0.7000
   Max. Damping (<1)    DampMax         ....    0.9800
   Min. Damping (>=0)   DampMin         ....    0.0000
   Turn off err/grad.   DampErr         ....    0.1000

SCF Procedure:
 Maximum # iterations   MaxIter         ....   125
 SCF integral mode      SCFMode         .... Direct
   Integral package                     .... SHARK and LIBINT hybrid scheme
 Reset frequency        DirectResetFreq ....    20
 Integral Threshold     Thresh          ....  2.500e-11 Eh
 Primitive CutOff       TCut            ....  2.500e-12 Eh

Convergence Tolerance:
 Convergence Check Mode ConvCheckMode   .... Total+1el-Energy
 Convergence forced     ConvForced      .... -1
 Energy Change          TolE            ....  1.000e-08 Eh
 1-El. energy change                    ....  1.000e-05 Eh
 Orbital Gradient       TolG            ....  1.000e-05
 Orbital Rotation angle TolX            ....  1.000e-05
 DIIS Error             TolErr          ....  5.000e-07

------------------------------
INITIAL GUESS: MODEL POTENTIAL
------------------------------
Loading Hartree-Fock densities                     ... done
Calculating cut-offs                               ... done
Initializing the effective Hamiltonian             ... done
Setting up the integral package (SHARK)            ... done
Starting the Coulomb interaction                   ... done (   0.0 sec)
Making the grid                                    ... done (   0.0 sec)
Mapping shells                                     ... done
Starting the XC term evaluation                    ... done (   0.0 sec)
  promolecular density results
     # of electrons  =     31.998363448
     EX              =    -27.859301808
     EC              =     -1.096850869
     EX+EC           =    -28.956152677
Transforming the Hamiltonian                       ... done (   0.0 sec)
Diagonalizing the Hamiltonian                      ... done (   0.0 sec)
Back transforming the eigenvectors                 ... done (   0.0 sec)
Now organizing SCF variables                       ... done
                      ------------------
                      INITIAL GUESS DONE (   0.0 sec)
                      ------------------
             **** ENERGY FILE WAS UPDATED (AcOH.en.tmp) ****
Finished Guess after   0.4 sec
Maximum memory used throughout the entire GUESS-calculation: 6.3 MB


           ************************************************************
           *        Program running with 16 parallel MPI-processes    *
           *              working on a common directory               *
           ************************************************************
Warning: Unable to find asked property in file 'AcOH.property.txt'

-------------------------------------------------------------------------------------------
                                      ORCA LEAN-SCF
                              memory conserving SCF solver
-------------------------------------------------------------------------------------------

----------------------------------------D-I-I-S--------------------------------------------
Iteration    Energy (Eh)           Delta-E    RMSDP     MaxDP     DIISErr   Damp  Time(sec)
-------------------------------------------------------------------------------------------
               ***  Starting incremental Fock matrix formation  ***
    1    -228.6205532900315234     0.00e+00  2.88e-02  9.67e-02  2.69e-01  0.700   0.1
    2    -228.7073997827868084    -8.68e-02  1.73e-02  5.52e-02  1.04e-01  0.700   0.0
                               ***Turning on AO-DIIS***
    3    -228.7370183161142450    -2.96e-02  5.66e-03  1.92e-02  3.97e-02  0.700   0.1
    4    -228.7557872913313872    -1.88e-02  8.13e-03  2.14e-02  1.71e-02  0.000   0.0
    5    -228.7979873041643941    -4.22e-02  2.13e-03  5.58e-03  9.62e-03  0.000   0.0
                              *** Initializing SOSCF ***
---------------------------------------S-O-S-C-F--------------------------------------
Iteration    Energy (Eh)           Delta-E    RMSDP     MaxDP     MaxGrad    Time(sec)
--------------------------------------------------------------------------------------
    6    -228.7982566024657558    -2.69e-04  6.30e-04  1.42e-03  1.71e-03     0.0
               *** Restarting incremental Fock matrix formation ***
    7    -228.7981908818964030     6.57e-05  4.46e-04  1.27e-03  3.06e-04     0.0
    8    -228.7981913073706437    -4.25e-07  1.55e-04  5.55e-04  3.60e-04     0.0
    9    -228.7981925009954125    -1.19e-06  1.16e-04  3.14e-04  1.55e-04     0.0
   10    -228.7981924251066630     7.59e-08  6.00e-05  2.82e-04  1.32e-04     0.0
   11    -228.7981926942059658    -2.69e-07  1.69e-05  5.48e-05  1.76e-05     0.0
   12    -228.7981926917129272     2.49e-09  8.57e-06  3.17e-05  2.74e-05     0.0
                 **** Energy Check signals convergence ****

               *****************************************************
               *                     SUCCESS                       *
               *           SCF CONVERGED AFTER  12 CYCLES          *
               *****************************************************

Recomputing exchange energy using gridx3       ... done (    0.040 sec)
Old exchange energy                            :     -5.643089828 Eh
New exchange energy                            :     -5.643123086 Eh
Exchange energy change after final integration :     -0.000033258 Eh
Total energy after final integration           :   -228.798225955 Eh
             **** ENERGY FILE WAS UPDATED (AcOH.en.tmp) ****

----------------
TOTAL SCF ENERGY
----------------

Total Energy       :       -228.79822595463460 Eh           -6225.91625 eV

Components:
Nuclear Repulsion  :        121.09791732215014 Eh            3295.24186 eV
Electronic Energy  :       -349.89611001891353 Eh           -9521.15720 eV
One Electron Energy:       -551.79188679106937 Eh          -15015.02059 eV
Two Electron Energy:        201.89577677215587 Eh            5493.86339 eV

Virial components:
Potential Energy   :       -455.80624176370031 Eh          -12403.11840 eV
Kinetic Energy     :        227.00801580906568 Eh            6177.20215 eV
Virial Ratio       :          2.00788610983268

DFT components:
N(Alpha)           :       16.000006165511 electrons
N(Beta)            :       16.000006165511 electrons
N(Total)           :       32.000012331021 electrons
E(X)               :      -22.457378026077 Eh       
E(C)               :       -1.298679579893 Eh       
E(XC)              :      -23.756057605970 Eh       

---------------
SCF CONVERGENCE
---------------

  Last Energy change         ...   -2.4930e-09  Tolerance :   1.0000e-08
  Last MAX-Density change    ...    3.1673e-05  Tolerance :   1.0000e-07
  Last RMS-Density change    ...    8.5701e-06  Tolerance :   5.0000e-09
  Last DIIS Error            ...    1.7082e-03  Tolerance :   5.0000e-07
  Last Orbital Gradient      ...    2.7352e-05  Tolerance :   1.0000e-05
  Last Orbital Rotation      ...    1.5941e-05  Tolerance :   1.0000e-05


----------------
ORBITAL ENERGIES
----------------

  NO   OCC          E(Eh)            E(eV) 
   0   2.0000     -19.176359      -521.8153 
   1   2.0000     -19.120836      -520.3044 
   2   2.0000     -10.316171      -280.7173 
   3   2.0000     -10.196892      -277.4715 
   4   2.0000      -1.091010       -29.6879 
   5   2.0000      -1.000005       -27.2115 
   6   2.0000      -0.753626       -20.5072 
   7   2.0000      -0.606124       -16.4935 
   8   2.0000      -0.486501       -13.2384 
   9   2.0000      -0.473440       -12.8830 
  10   2.0000      -0.469476       -12.7751 
  11   2.0000      -0.411441       -11.1959 
  12   2.0000      -0.393162       -10.6985 
  13   2.0000      -0.391514       -10.6536 
  14   2.0000      -0.320021        -8.7082 
  15   2.0000      -0.276834        -7.5330 
  16   0.0000       0.008439         0.2296 
  17   0.0000       0.054884         1.4935 
  18   0.0000       0.082655         2.2492 
  19   0.0000       0.128943         3.5087 
  20   0.0000       0.138371         3.7653 
  21   0.0000       0.213554         5.8111 
  22   0.0000       0.259608         7.0643 
  23   0.0000       0.306523         8.3409 
  24   0.0000       0.443109        12.0576 
  25   0.0000       0.448988        12.2176 
  26   0.0000       0.492869        13.4117 
*Only the first 10 virtual orbitals were printed.

                    ********************************
                    * MULLIKEN POPULATION ANALYSIS *
                    ********************************

-------------------------
MULLIKEN FRAGMENT CHARGES
-------------------------
 Fragment   0 :   0.000000
Sum of fragment charges:    0.0000000

---------------------------------
MULLIKEN FRAGMENT OVERLAP CHARGES
---------------------------------
                  0    
      0      36.970823

-----------------------
MULLIKEN ATOMIC CHARGES
-----------------------
   0 H :    0.042761
   1 C :    0.044154
   2 H :    0.042646
   3 H :    0.035026
   4 C :    0.076975
   5 O :   -0.221273
   6 O :   -0.197145
   7 H :    0.176855
Sum of atomic charges:    0.0000000

--------------------------------
MULLIKEN REDUCED ORBITAL CHARGES
--------------------------------
  0 H s       :     0.932488  s :     0.932488
      pz      :     0.012526  p :     0.024750
      px      :     0.006724
      py      :     0.005500

  1 C s       :     2.943081  s :     2.943081
      pz      :     1.021396  p :     2.987383
      px      :     0.955108
      py      :     1.010880
      dz2     :     0.004538  d :     0.025382
      dxz     :     0.004346
      dyz     :     0.005574
      dx2y2   :     0.008336
      dxy     :     0.002587

  2 H s       :     0.932605  s :     0.932605
      pz      :     0.008475  p :     0.024749
      px      :     0.005474
      py      :     0.010799

  3 H s       :     0.941490  s :     0.941490
      pz      :     0.006755  p :     0.023483
      px      :     0.004298
      py      :     0.012430

  4 C s       :     3.093869  s :     3.093869
      pz      :     0.818149  p :     2.696220
      px      :     1.042174
      py      :     0.835897
      dz2     :     0.014263  d :     0.132937
      dxz     :     0.015821
      dyz     :     0.025845
      dx2y2   :     0.047014
      dxy     :     0.029993

  5 O s       :     3.734058  s :     3.734058
      pz      :     1.432877  p :     4.468763
      px      :     1.566721
      py      :     1.469165
      dz2     :     0.002407  d :     0.018452
      dxz     :     0.002913
      dyz     :     0.003233
      dx2y2   :     0.004010
      dxy     :     0.005890

  6 O s       :     3.690009  s :     3.690009
      pz      :     1.697301  p :     4.493671
      px      :     1.284663
      py      :     1.511707
      dz2     :     0.002168  d :     0.013464
      dxz     :     0.000453
      dyz     :     0.003267
      dx2y2   :     0.005727
      dxy     :     0.001849

  7 H s       :     0.757207  s :     0.757207
      pz      :     0.015635  p :     0.065938
      px      :     0.036640
      py      :     0.013663



                     *******************************
                     * LOEWDIN POPULATION ANALYSIS *
                     *******************************

------------------------
LOEWDIN FRAGMENT CHARGES
------------------------
 Fragment   0 :   0.000000

----------------------------
LOEWDIN FRAGMENT BOND ORDERS
----------------------------
                  0    
      0      50.834968

----------------------
LOEWDIN ATOMIC CHARGES
----------------------
   0 H :    0.046803
   1 C :   -0.068697
   2 H :    0.046771
   3 H :    0.039621
   4 C :    0.084047
   5 O :   -0.182874
   6 O :   -0.056397
   7 H :    0.090727

-------------------------------
LOEWDIN REDUCED ORBITAL CHARGES
-------------------------------
  0 H s       :     0.885064  s :     0.885064
      pz      :     0.034876  p :     0.068133
      px      :     0.019985
      py      :     0.013272

  1 C s       :     2.836440  s :     2.836440
      pz      :     1.071656  p :     3.163266
      px      :     1.018399
      py      :     1.073212
      dz2     :     0.011812  d :     0.068991
      dxz     :     0.012017
      dyz     :     0.014335
      dx2y2   :     0.023547
      dxy     :     0.007280

  2 H s       :     0.885095  s :     0.885095
      pz      :     0.021953  p :     0.068134
      px      :     0.016294
      py      :     0.029887

  3 H s       :     0.892874  s :     0.892874
      pz      :     0.018677  p :     0.067506
      px      :     0.013945
      py      :     0.034884

  4 C s       :     2.851775  s :     2.851775
      pz      :     0.819328  p :     2.776148
      px      :     1.041437
      py      :     0.915383
      dz2     :     0.029178  d :     0.288030
      dxz     :     0.028960
      dyz     :     0.056331
      dx2y2   :     0.107882
      dxy     :     0.065679

  5 O s       :     3.548037  s :     3.548037
      pz      :     1.437909  p :     4.603330
      px      :     1.626462
      py      :     1.538959
      dz2     :     0.004174  d :     0.031507
      dxz     :     0.004182
      dyz     :     0.004993
      dx2y2   :     0.005999
      dxy     :     0.012160

  6 O s       :     3.439820  s :     3.439820
      pz      :     1.676014  p :     4.590057
      px      :     1.361572
      py      :     1.552471
      dz2     :     0.003988  d :     0.026521
      dxz     :     0.000922
      dyz     :     0.005889
      dx2y2   :     0.012151
      dxy     :     0.003571

  7 H s       :     0.735522  s :     0.735522
      pz      :     0.042414  p :     0.173751
      px      :     0.095614
      py      :     0.035723



                      *****************************
                      * MAYER POPULATION ANALYSIS *
                      *****************************

  NA   - Mulliken gross atomic population
  ZA   - Total nuclear charge
  QA   - Mulliken gross atomic charge
  VA   - Mayer's total valence
  BVA  - Mayer's bonded valence
  FA   - Mayer's free valence

  ATOM       NA         ZA         QA         VA         BVA        FA
  0 H      0.9572     1.0000     0.0428     1.0011     1.0011    -0.0000
  1 C      5.9558     6.0000     0.0442     3.8703     3.8703    -0.0000
  2 H      0.9574     1.0000     0.0426     1.0012     1.0012     0.0000
  3 H      0.9650     1.0000     0.0350     1.0107     1.0107     0.0000
  4 C      5.9230     6.0000     0.0770     4.4347     4.4347    -0.0000
  5 O      8.2213     8.0000    -0.2213     2.2615     2.2615     0.0000
  6 O      8.1971     8.0000    -0.1971     2.2041     2.2041     0.0000
  7 H      0.8231     1.0000     0.1769     1.0370     1.0370    -0.0000

  Mayer bond orders larger than 0.100000
B(  0-H ,  1-C ) :   0.9484 B(  1-C ,  2-H ) :   0.9484 B(  1-C ,  3-H ) :   0.9635 
B(  1-C ,  4-C ) :   1.0287 B(  4-C ,  5-O ) :   2.1126 B(  4-C ,  6-O ) :   1.1944 
B(  6-O ,  7-H ) :   0.9524 

-------
TIMINGS
-------

Total SCF time: 0 days 0 hours 0 min 1 sec 

Total time                  ....       1.005 sec
Sum of individual times     ....       0.949 sec  ( 94.4%)

SCF preparation             ....       0.356 sec  ( 35.4%)
Fock matrix formation       ....       0.531 sec  ( 52.8%)
  Startup                   ....       0.001 sec  (  0.2% of F)
  Split-RI-J                ....       0.043 sec  (  8.2% of F)
  Chain of spheres X        ....       0.356 sec  ( 67.2% of F)
  XC integration            ....       0.139 sec  ( 26.2% of F)
    Basis function eval.    ....       0.020 sec  ( 14.5% of XC)
    Density eval.           ....       0.008 sec  (  5.5% of XC)
    XC-Functional eval.     ....       0.006 sec  (  4.0% of XC)
    XC-Potential eval.      ....       0.008 sec  (  5.7% of XC)
Diagonalization             ....       0.000 sec  (  0.0%)
Density matrix formation    ....       0.008 sec  (  0.8%)
Total Energy calculation    ....       0.005 sec  (  0.5%)
Population analysis         ....       0.003 sec  (  0.3%)
Orbital Transformation      ....       0.004 sec  (  0.4%)
Orbital Orthonormalization  ....       0.000 sec  (  0.0%)
DIIS solution               ....       0.021 sec  (  2.1%)
SOSCF solution              ....       0.020 sec  (  2.0%)
Finished LeanSCF after   1.0 sec

Maximum memory used throughout the entire LEANSCF-calculation: 6.8 MB

-------------------------   --------------------
FINAL SINGLE POINT ENERGY      -228.798225954635
-------------------------   --------------------



           ************************************************************
           *        Program running with 16 parallel MPI-processes    *
           *              working on a common directory               *
           ************************************************************
------------------------------------------------------------------------------
                         ORCA SCF GRADIENT CALCULATION
------------------------------------------------------------------------------

Nuc. rep. gradient        (SHARK) ... done (  0.0 sec)
HCore & Overlap gradient  (SHARK) ... done (  0.0 sec)
Split-RIJ-J gradient      (SHARK) ... done (  0.0 sec)
done (  0.2 sec)
XC gradient                       ... done (  0.0 sec)

------------------
CARTESIAN GRADIENT
------------------

   1   H   :   -0.003606658   -0.001035855   -0.007893154
   2   C   :    0.002489541    0.000737073    0.000065523
   3   H   :   -0.002145069   -0.007029228    0.004716218
   4   H   :   -0.002235750    0.008113219    0.004129356
   5   C   :    0.008937006   -0.000581412   -0.001360221
   6   O   :   -0.003509930   -0.004924120   -0.001899478
   7   O   :   -0.002429934    0.005269531    0.002802502
   8   H   :    0.002500795   -0.000549207   -0.000560746

Difference to translation invariance:
           :   -0.0000000000   -0.0000000000   -0.0000000000

Difference to rotation invariance:
           :   -0.0000420985   -0.0000105513    0.0000430825

Norm of the Cartesian gradient     ...    0.0204422677
RMS gradient                       ...    0.0041727604
MAX gradient                       ...    0.0089370057

-------
TIMINGS
-------

Total SCF gradient time     ....        0.253 sec

Densities                   ....       0.000 sec  (  0.0%)
One electron gradient       ....       0.005 sec  (  1.9%)
RI-J Coulomb gradient       ....       0.039 sec  ( 15.4%)
COSX gradient               ....       0.181 sec  ( 71.6%)
XC gradient                 ....       0.028 sec  ( 11.0%)

Maximum memory used throughout the entire SCFGRAD-calculation: 9.0 MB
------------------------------------------------------------------------------
                         ORCA GEOMETRY RELAXATION STEP
------------------------------------------------------------------------------

Reading the OPT-File                    .... done
Getting information on internals        .... done
Copying old internal coords+grads       .... done
Making the new internal coordinates     .... (2022 redundants) done
Validating the new internal coordinates .... (2022 redundants) done
Calculating the B-matrix                .... done
Calculating the G,G- and P matrices     .... done
Transforming gradient to internals      .... done
Projecting the internal gradient        .... done
Number of atoms                         ....   8
Number of internal coordinates          ....  24
Current Energy                          ....  -228.798225955 Eh
Current gradient norm                   ....     0.020442268 Eh/bohr
Maximum allowed component of the step   ....  0.300
Current trust radius                    ....  0.300
Evaluating the initial hessian          ....  (Almloef) done
Projecting the Hessian                  .... done
Forming the augmented Hessian           .... done
Diagonalizing the augmented Hessian     .... done
Last element of RFO vector              ....  0.998924958
Lowest eigenvalues of augmented Hessian:
 -0.000838287  0.013145317  0.017481842  0.028860232  0.138743198
Length of the computed step             ....  0.046406418
The final length of the internal step   ....  0.046406418
Converting the step to Cartesian space:
 Initial RMS(Int)=    0.0094726703
Transforming coordinates:
 Iter   0:  RMS(Cart)=    0.0104834294 RMS(Int)=    1.2825319007
done
Storing new coordinates                 .... done

                                .--------------------.
          ----------------------|Geometry convergence|-------------------------
          Item                value                   Tolerance       Converged
          ---------------------------------------------------------------------
          RMS gradient        0.0038139423            0.0001000000      NO
          MAX gradient        0.0093713285            0.0003000000      NO
          RMS step            0.0094726703            0.0020000000      NO
          MAX step            0.0253153164            0.0040000000      NO
          -------------------------------------------------------------------------
          ........................................................
          Max(Bonds)      0.0134      Max(Angles)    0.22
          Max(Dihed)        0.12      Max(Improp)    0.00
          ---------------------------------------------------------------------

    ---------------------------------------------------------------------------
                         Redundant Internal Coordinates
                            (Angstroem and degrees)

        Definition                    Value    dE/dq     Step     New-Value
    ----------------------------------------------------------------------------
     1. B(C   1,H   0)                1.0884 -0.008721  0.0127    1.1012   
     2. B(H   2,C   1)                1.0884 -0.008714  0.0127    1.1011   
     3. B(H   3,C   1)                1.0831 -0.009371  0.0134    1.0965   
     4. B(C   4,C   1)                1.4970 -0.005604  0.0070    1.5040   
     5. B(O   5,C   4)                1.2085  0.006292 -0.0031    1.2055   
     6. B(O   6,C   4)                1.3592  0.004984 -0.0042    1.3550   
     7. B(H   7,O   6)                0.9705 -0.002505  0.0026    0.9731   
     8. A(H   0,C   1,H   2)          107.08 -0.000309   -0.01    107.07   
     9. A(H   0,C   1,C   4)          110.16  0.000648   -0.13    110.04   
    10. A(H   2,C   1,C   4)          110.17  0.000657   -0.13    110.04   
    11. A(H   0,C   1,H   3)          109.85 -0.000463    0.12    109.97   
    12. A(H   3,C   1,C   4)          109.68 -0.000091    0.04    109.72   
    13. A(H   2,C   1,H   3)          109.86 -0.000449    0.11    109.97   
    14. A(C   1,C   4,O   5)          126.09 -0.000268    0.03    126.12   
    15. A(O   5,C   4,O   6)          122.43  0.001459   -0.18    122.24   
    16. A(C   1,C   4,O   6)          111.48 -0.001191    0.16    111.64   
    17. A(C   4,O   6,H   7)          105.94 -0.001419    0.22    106.16   
    18. D(O   5,C   4,C   1,H   2)    121.08 -0.000194    0.04    121.12   
    19. D(O   5,C   4,C   1,H   0)   -121.00  0.000223   -0.12   -121.12   
    20. D(O   6,C   4,C   1,H   0)     58.98  0.000203   -0.07     58.91   
    21. D(O   6,C   4,C   1,H   2)    -58.93 -0.000214    0.10    -58.84   
    22. D(O   5,C   4,C   1,H   3)      0.03  0.000003   -0.04     -0.01   
    23. D(H   7,O   6,C   4,O   5)     -0.01 -0.000015    0.04      0.02   
    24. D(H   7,O   6,C   4,C   1)   -180.00  0.000004   -0.01   -180.01   
    ----------------------------------------------------------------------------

Geometry step timings:
Preparation and reading OPT file:      0.000 s ( 3.786 %)
Internal coordinates            :      0.000 s ( 2.895 %)
B/P matrices and projection     :      0.000 s (24.944 %)
Hessian update/contruction      :      0.000 s (14.699 %)
Making the step                 :      0.000 s (20.935 %)
Converting the step to Cartesian:      0.000 s ( 5.122 %)
Storing new data                :      0.000 s ( 3.563 %)
Checking convergence            :      0.000 s ( 3.118 %)
Final printing                  :      0.000 s (20.713 %)
Total time                      :      0.000 s

Time for energy+gradient        :      3.107 s
Time for complete geometry iter :      3.550 s

         *************************************************************
         *                GEOMETRY OPTIMIZATION CYCLE   2            *
         *************************************************************
---------------------------------
CARTESIAN COORDINATES (ANGSTROEM)
---------------------------------
  H      1.432832   -0.103838    0.770794
  C      0.922545   -0.196952   -0.200544
  H      1.248373    0.653336   -0.819693
  H      1.204105   -1.140773   -0.682445
  C     -0.568163   -0.151417   -0.005933
  O     -1.352731   -1.009724   -0.323546
  O     -0.959602    1.002012    0.587636
  H     -1.927359    0.947367    0.673719

----------------------------
CARTESIAN COORDINATES (A.U.)
----------------------------
  NO LB      ZA    FRAG     MASS         X           Y           Z
   0 H     1.0000    1     1.008    2.707660   -0.196226    1.456590
   1 C     6.0000    1    12.011    1.743357   -0.372186   -0.378973
   2 H     1.0000    1     1.008    2.359083    1.234626   -1.548995
   3 H     1.0000    1     1.008    2.275429   -2.155748   -1.289634
   4 C     6.0000    1    12.011   -1.073673   -0.286137   -0.011212
   5 O     8.0000    1    15.999   -2.556292   -1.908102   -0.611413
   6 O     8.0000    1    15.999   -1.813386    1.893529    1.110472
   7 H     1.0000    1     1.008   -3.642181    1.790264    1.273145

----------------------------------------------
CARTESIAN COORDINATES OF FRAGMENTS (ANGSTROEM)
----------------------------------------------

 FRAGMENT 1 
  H     1.432832   -0.103838    0.770794
  C     0.922545   -0.196952   -0.200544
  H     1.248373    0.653336   -0.819693
  H     1.204105   -1.140773   -0.682445
  C    -0.568163   -0.151417   -0.005933
  O    -1.352731   -1.009724   -0.323546
  O    -0.959602    1.002012    0.587636
  H    -1.927359    0.947367    0.673719

--------------------------------
INTERNAL COORDINATES (ANGSTROEM)
--------------------------------
 H      0   0   0     0.000000000000     0.00000000     0.00000000
 C      1   0   0     1.101163338131     0.00000000     0.00000000
 H      2   1   0     1.101135555365   107.07186400     0.00000000
 H      2   1   3     1.096495292979   109.96632543   119.45492944
 C      2   1   3     1.504046998560   110.03541210   240.42712903
 O      5   2   1     1.205452387537   126.11650463   238.87529239
 O      5   2   1     1.354972172898   111.64056280    58.91499899
 H      7   5   2     0.973113128756   106.15580769   179.98683480

---------------------------
INTERNAL COORDINATES (A.U.)
---------------------------
 H      0   0   0     0.000000000000     0.00000000     0.00000000
 C      1   0   0     2.080897137782     0.00000000     0.00000000
 H      2   1   0     2.080844635963   107.07186400     0.00000000
 H      2   1   3     2.072075810864   109.96632543   119.45492944
 C      2   1   3     2.842236919825   110.03541210   240.42712903
 O      5   2   1     2.277974879927   126.11650463   238.87529239
 O      5   2   1     2.560526325861   111.64056280    58.91499899
 H      7   5   2     1.838917310672   106.15580769   179.98683480



           ************************************************************
           *        Program running with 16 parallel MPI-processes    *
           *              working on a common directory               *
           ************************************************************
------------------------------------------------------------------------------
                   ___                                                        
                  /   \      - P O W E R E D   B Y -                         
                 /     \                                                     
                 |  |  |   _    _      __       _____    __    __             
                 |  |  |  | |  | |    /  \     |  _  \  |  |  /  |          
                  \  \/   | |  | |   /    \    | | | |  |  | /  /          
                 / \  \   | |__| |  /  /\  \   | |_| |  |  |/  /          
                |  |  |   |  __  | /  /__\  \  |    /   |      \           
                |  |  |   | |  | | |   __   |  |    \   |  |\   \          
                \     /   | |  | | |  |  |  |  | |\  \  |  | \   \       
                 \___/    |_|  |_| |__|  |__|  |_| \__\ |__|  \__/        
                                                                              
                      - O R C A' S   B I G   F R I E N D -                    
                                      &                                       
                       - I N T E G R A L  F E E D E R -                       
                                                                              
 v1 FN, 2020, v2 2021, v3 2022-2024                                           
------------------------------------------------------------------------------


----------------------
SHARK INTEGRAL PACKAGE
----------------------

Number of atoms                             ...      8
Number of basis functions                   ...     76
Number of shells                            ...     36
Maximum angular momentum                    ...      2
Integral batch strategy                     ... SHARK/LIBINT Hybrid
RI-J (if used) integral strategy            ... SPLIT-RIJ (Revised 2003 algorithm where possible)
Printlevel                                  ...      1
Contraction scheme used                     ... SEGMENTED contraction
Prescreening option                         ... SCHWARTZ
   Thresh                                   ... 2.500e-11
   Tcut                                     ... 2.500e-12
   Tpresel                                  ... 2.500e-12 
Coulomb Range Separation                    ... NOT USED
Exchange Range Separation                   ... NOT USED
Multipole approximations                    ... NOT USED
Finite Nucleus Model                        ... NOT USED
CABS basis                                  ... NOT available
Auxiliary Coulomb fitting basis             ... AVAILABLE
   # of basis functions in Aux-J            ...    240
   # of shells in Aux-J                     ...     80
   Maximum angular momentum in Aux-J        ...      4
Auxiliary J/K fitting basis                 ... NOT available
Auxiliary Correlation fitting basis         ... NOT available
Auxiliary 'external' fitting basis          ... NOT available

Checking pre-screening integrals            ... done (  0.0 sec) Dimension = 36
   => SHARK Basis and OBASIS are compatible. Storing Pre-screening
Shell pair information
Shell pair cut-off parameter TPreSel        ...   2.5e-12
Total number of shell pairs                 ...       666
Shell pairs after pre-screening             ...       662
Total number of primitive shell pairs       ...      2410
Primitive shell pairs kept                  ...      1989
          la=0 lb=0:    207 shell pairs
          la=1 lb=0:    239 shell pairs
          la=1 lb=1:     78 shell pairs
          la=2 lb=0:     80 shell pairs
          la=2 lb=1:     48 shell pairs
          la=2 lb=2:     10 shell pairs

Checking whether 4 symmetric matrices of dimension 76 fit in memory
:Max Core in MB      =   4096.00
 MB in use           =      4.15
 MB left             =   4091.85
 MB needed           =      0.09
 Data fit in memory  = YES
Calculating RI/J V-Matrix + Cholesky decomp.... done (  0.0 sec)
Calculating Nuclear repulsion               ... done (  0.0 sec) ENN=    120.972963701082 Eh

Diagonalization of the overlap matrix:
Smallest eigenvalue                        ... 3.552e-03
Time for diagonalization                   ...    0.000 sec
Threshold for overlap eigenvalues          ... 1.000e-07
Number of eigenvalues below threshold      ... 0
Time for construction of square roots      ...    0.000 sec
Total time needed                          ...    0.001 sec

-------------------
DFT GRID GENERATION
-------------------

General Integration Accuracy     IntAcc      ... 4.388
Radial Grid Type                 RadialGrid  ... OptM3 with GC (2021)
Angular Grid (max. ang.)         AngularGrid ... 4 (Lebedev-302)
Angular grid pruning method      GridPruning ... 4 (adaptive)
Weight generation scheme         WeightScheme... mBecke (2022)
Basis function cutoff            BFCut       ... 1.0000e-11
Integration weight cutoff        WCut        ... 1.0000e-14
Partially contracted basis set               ... off
Rotationally invariant grid construction     ... off
Angular grids for H and He will be reduced by one unit

Total number of grid points                  ...    37396
Total number of batches                      ...      589
Average number of points per batch           ...       63
Average number of grid points per atom       ...     4674

--------------------
COSX GRID GENERATION
--------------------

GRIDX 1
-------
General Integration Accuracy     IntAcc      ... 3.816
Radial Grid Type                 RadialGrid  ... OptM3 with GC (2021)
Angular Grid (max. ang.)         AngularGrid ... 1 (Lebedev-50)
Angular grid pruning method      GridPruning ... 4 (adaptive)
Weight generation scheme         WeightScheme... mBecke (2022)
Basis function cutoff            BFCut       ... 1.0000e-11
Integration weight cutoff        WCut        ... 1.0000e-14
Partially contracted basis set               ... on
Rotationally invariant grid construction     ... off
Angular grids for H and He will be reduced by one unit

Total number of grid points                  ...     4802
Total number of batches                      ...       42
Average number of points per batch           ...      114
Average number of grid points per atom       ...      600
UseSFitting                                  ... on

GRIDX 2
-------
General Integration Accuracy     IntAcc      ... 4.020
Radial Grid Type                 RadialGrid  ... OptM3 with GC (2021)
Angular Grid (max. ang.)         AngularGrid ... 2 (Lebedev-110)
Angular grid pruning method      GridPruning ... 4 (adaptive)
Weight generation scheme         WeightScheme... mBecke (2022)
Basis function cutoff            BFCut       ... 1.0000e-11
Integration weight cutoff        WCut        ... 1.0000e-14
Partially contracted basis set               ... on
Rotationally invariant grid construction     ... off
Angular grids for H and He will be reduced by one unit

Total number of grid points                  ...    10551
Total number of batches                      ...       87
Average number of points per batch           ...      121
Average number of grid points per atom       ...     1319
UseSFitting                                  ... on

GRIDX 3
-------
General Integration Accuracy     IntAcc      ... 4.338
Radial Grid Type                 RadialGrid  ... OptM3 with GC (2021)
Angular Grid (max. ang.)         AngularGrid ... 3 (Lebedev-194)
Angular grid pruning method      GridPruning ... 4 (adaptive)
Weight generation scheme         WeightScheme... mBecke (2022)
Basis function cutoff            BFCut       ... 1.0000e-11
Integration weight cutoff        WCut        ... 1.0000e-14
Partially contracted basis set               ... on
Rotationally invariant grid construction     ... off
Angular grids for H and He will be reduced by one unit

Total number of grid points                  ...    23313
Total number of batches                      ...      186
Average number of points per batch           ...      125
Average number of grid points per atom       ...     2914
UseSFitting                                  ... on
Grids setup in   0.2 sec
Initializing property integral containers    ... done (  0.0 sec)

SHARK setup successfully completed in   0.2 seconds

Maximum memory used throughout the entire STARTUP-calculation: 11.3 MB


           ************************************************************
           *        Program running with 16 parallel MPI-processes    *
           *              working on a common directory               *
           ************************************************************
Occupation numbers will be reassigned to an Aufbau configuration
             **** ENERGY FILE WAS UPDATED (AcOH.en.tmp) ****
Finished Guess after   0.3 sec
Maximum memory used throughout the entire GUESS-calculation: 6.4 MB


           ************************************************************
           *        Program running with 16 parallel MPI-processes    *
           *              working on a common directory               *
           ************************************************************
----------------------------------------D-I-I-S--------------------------------------------
Iteration    Energy (Eh)           Delta-E    RMSDP     MaxDP     DIISErr   Damp  Time(sec)
-------------------------------------------------------------------------------------------
               ***  Starting incremental Fock matrix formation  ***
    1    -228.7985328364817406     0.00e+00  6.01e-04  3.04e-03  4.56e-03  0.700   0.1
                              *** Initializing SOSCF ***
---------------------------------------S-O-S-C-F--------------------------------------
Iteration    Energy (Eh)           Delta-E    RMSDP     MaxDP     MaxGrad    Time(sec)
--------------------------------------------------------------------------------------
    2    -228.7985660330540441    -3.32e-05  1.61e-03  7.91e-03  2.81e-03     0.0
               *** Restarting incremental Fock matrix formation ***
    3    -228.7986283318687697    -6.23e-05  6.70e-04  3.67e-03  6.04e-04     0.1
    4    -228.7986253056104715     3.03e-06  3.69e-04  1.65e-03  7.26e-04     0.1
    5    -228.7986348625734081    -9.56e-06  1.83e-04  6.83e-04  2.15e-04     0.1
    6    -228.7986340204470253     8.42e-07  1.21e-04  4.23e-04  3.79e-04     0.1
    7    -228.7986352144171747    -1.19e-06  1.98e-05  8.62e-05  1.97e-05     0.1
    8    -228.7986352050255618     9.39e-09  1.22e-05  5.33e-05  3.26e-05     0.1
                 **** Energy Check signals convergence ****

               *****************************************************
               *                     SUCCESS                       *
               *           SCF CONVERGED AFTER   8 CYCLES          *
               *****************************************************

Recomputing exchange energy using gridx3       ... done (    0.043 sec)
Old exchange energy                            :     -5.640479938 Eh
New exchange energy                            :     -5.640511279 Eh
Exchange energy change after final integration :     -0.000031341 Eh
Total energy after final integration           :   -228.798666562 Eh
             **** ENERGY FILE WAS UPDATED (AcOH.en.tmp) ****

----------------
TOTAL SCF ENERGY
----------------

Total Energy       :       -228.79866656180508 Eh           -6225.92824 eV

Components:
Nuclear Repulsion  :        120.97296370108194 Eh            3291.84170 eV
Electronic Energy  :       -349.77159892167634 Eh           -9517.76908 eV
One Electron Energy:       -551.55997125619524 Eh          -15008.70985 eV
Two Electron Energy:        201.78837233451890 Eh            5490.94077 eV

Virial components:
Potential Energy   :       -455.76243101908426 Eh          -12401.92625 eV
Kinetic Energy     :        226.96376445727918 Eh            6175.99801 eV
Virial Ratio       :          2.00808455970456

DFT components:
N(Alpha)           :       16.000006322520 electrons
N(Beta)            :       16.000006322520 electrons
N(Total)           :       32.000012645039 electrons
E(X)               :      -22.447763587840 Eh       
E(C)               :       -1.298085764453 Eh       
E(XC)              :      -23.745849352293 Eh       

---------------
SCF CONVERGENCE
---------------

  Last Energy change         ...   -9.3916e-09  Tolerance :   1.0000e-08
  Last MAX-Density change    ...    5.3251e-05  Tolerance :   1.0000e-07
  Last RMS-Density change    ...    1.2197e-05  Tolerance :   5.0000e-09
  Last DIIS Error            ...    2.8099e-03  Tolerance :   5.0000e-07
  Last Orbital Gradient      ...    3.2583e-05  Tolerance :   1.0000e-05
  Last Orbital Rotation      ...    2.7531e-05  Tolerance :   1.0000e-05


Total SCF time: 0 days 0 hours 0 min 0 sec 
Finished LeanSCF after   0.9 sec

Maximum memory used throughout the entire LEANSCF-calculation: 7.0 MB

-------------------------   --------------------
FINAL SINGLE POINT ENERGY      -228.798666561805
-------------------------   --------------------



           ************************************************************
           *        Program running with 16 parallel MPI-processes    *
           *              working on a common directory               *
           ************************************************************
------------------------------------------------------------------------------
                         ORCA SCF GRADIENT CALCULATION
------------------------------------------------------------------------------

Nuc. rep. gradient        (SHARK) ... done (  0.0 sec)
HCore & Overlap gradient  (SHARK) ... done (  0.0 sec)
Split-RIJ-J gradient      (SHARK) ... done (  0.0 sec)
done (  0.2 sec)
XC gradient                       ... done (  0.0 sec)

------------------
CARTESIAN GRADIENT
------------------

   1   H   :    0.000120670   -0.000172738   -0.000212375
   2   C   :   -0.002073690    0.000638949    0.000499020
   3   H   :    0.000157069   -0.000260338   -0.000023448
   4   H   :    0.000141624    0.000052242    0.000011097
   5   C   :    0.003020414   -0.001647437   -0.001032723
   6   O   :   -0.000770432   -0.000242515   -0.000046599
   7   O   :   -0.000463933    0.001953203    0.000946709
   8   H   :   -0.000131721   -0.000321365   -0.000141682

Difference to translation invariance:
           :   -0.0000000000   -0.0000000001   -0.0000000000

Difference to rotation invariance:
           :   -0.0000422514   -0.0000020719    0.0000399609

Norm of the Cartesian gradient     ...    0.0048773033
RMS gradient                       ...    0.0009955754
MAX gradient                       ...    0.0030204140

-------
TIMINGS
-------

Total SCF gradient time     ....        0.245 sec

Densities                   ....       0.000 sec  (  0.1%)
One electron gradient       ....       0.005 sec  (  1.9%)
RI-J Coulomb gradient       ....       0.038 sec  ( 15.6%)
COSX gradient               ....       0.173 sec  ( 70.6%)
XC gradient                 ....       0.029 sec  ( 11.8%)

Maximum memory used throughout the entire SCFGRAD-calculation: 9.0 MB
------------------------------------------------------------------------------
                         ORCA GEOMETRY RELAXATION STEP
------------------------------------------------------------------------------

Reading the OPT-File                    .... done
Getting information on internals        .... done
Copying old internal coords+grads       .... done
Making the new internal coordinates     .... (2022 redundants) done
Validating the new internal coordinates .... (2022 redundants) done
Calculating the B-matrix                .... done
Calculating the G,G- and P matrices     .... done
Transforming gradient to internals      .... done
Projecting the internal gradient        .... done
Number of atoms                         ....   8
Number of internal coordinates          ....  24
Current Energy                          ....  -228.798666562 Eh
Current gradient norm                   ....     0.004877303 Eh/bohr
Maximum allowed component of the step   ....  0.300
Current trust radius                    ....  0.300
Updating the Hessian (BFGS)             .... done
Forming the augmented Hessian           .... done
Diagonalizing the augmented Hessian     .... done
Last element of RFO vector              ....  0.999971382
[...]

  4 C s       :     3.092564  s :     3.092564
      pz      :     0.818280  p :     2.696699
      px      :     1.040457
      py      :     0.837961
      dz2     :     0.014543  d :     0.134036
      dxz     :     0.015848
      dyz     :     0.026149
      dx2y2   :     0.047361
      dxy     :     0.030135

  5 O s       :     3.731135  s :     3.731135
      pz      :     1.433261  p :     4.469168
      px      :     1.565529
      py      :     1.470377
      dz2     :     0.002433  d :     0.018612
      dxz     :     0.002945
      dyz     :     0.003261
      dx2y2   :     0.004041
      dxy     :     0.005932

  6 O s       :     3.686587  s :     3.686587
      pz      :     1.695358  p :     4.492636
      px      :     1.285372
      py      :     1.511907
      dz2     :     0.002186  d :     0.013531
      dxz     :     0.000455
      dyz     :     0.003311
      dx2y2   :     0.005749
      dxy     :     0.001830

  7 H s       :     0.755862  s :     0.755862
      pz      :     0.015478  p :     0.065637
      px      :     0.036638
      py      :     0.013521



                     *******************************
                     * LOEWDIN POPULATION ANALYSIS *
                     *******************************

------------------------
LOEWDIN FRAGMENT CHARGES
------------------------
 Fragment   0 :  -0.000000

----------------------------
LOEWDIN FRAGMENT BOND ORDERS
----------------------------
                  0    
      0      50.837379

----------------------
LOEWDIN ATOMIC CHARGES
----------------------
   0 H :    0.047848
   1 C :   -0.073735
   2 H :    0.047922
   3 H :    0.041373
   4 C :    0.077865
   5 O :   -0.181348
   6 O :   -0.052918
   7 H :    0.092994

-------------------------------
LOEWDIN REDUCED ORBITAL CHARGES
-------------------------------
  0 H s       :     0.886049  s :     0.886049
      pz      :     0.034398  p :     0.066103
      px      :     0.019218
      py      :     0.012487

  1 C s       :     2.849057  s :     2.849057
      pz      :     1.069758  p :     3.158071
      px      :     1.017424
      py      :     1.070889
      dz2     :     0.011495  d :     0.066607
      dxz     :     0.011463
      dyz     :     0.013818
      dx2y2   :     0.022926
      dxy     :     0.006905

  2 H s       :     0.885974  s :     0.885974
      pz      :     0.021230  p :     0.066104
      px      :     0.015539
      py      :     0.029335

  3 H s       :     0.893191  s :     0.893191
      pz      :     0.017890  p :     0.065435
      px      :     0.013170
      py      :     0.034375

  4 C s       :     2.851712  s :     2.851712
      pz      :     0.820424  p :     2.779503
      px      :     1.041286
      py      :     0.917793
      dz2     :     0.029816  d :     0.290921
      dxz     :     0.028943
      dyz     :     0.057251
      dx2y2   :     0.108860
      dxy     :     0.066052

  5 O s       :     3.545562  s :     3.545562
      pz      :     1.438074  p :     4.603981
      px      :     1.626077
      py      :     1.539830
      dz2     :     0.004210  d :     0.031805
      dxz     :     0.004237
      dyz     :     0.005048
      dx2y2   :     0.006070
      dxy     :     0.012240

  6 O s       :     3.436903  s :     3.436903
      pz      :     1.674269  p :     4.589229
      px      :     1.361661
      py      :     1.553299
      dz2     :     0.004005  d :     0.026786
      dxz     :     0.000959
      dyz     :     0.006003
      dx2y2   :     0.012231
      dxy     :     0.003588

  7 H s       :     0.734679  s :     0.734679
      pz      :     0.041860  p :     0.172327
      px      :     0.095333
      py      :     0.035134



                      *****************************
                      * MAYER POPULATION ANALYSIS *
                      *****************************

  NA   - Mulliken gross atomic population
  ZA   - Total nuclear charge
  QA   - Mulliken gross atomic charge
  VA   - Mayer's total valence
  BVA  - Mayer's bonded valence
  FA   - Mayer's free valence

  ATOM       NA         ZA         QA         VA         BVA        FA
  0 H      0.9534     1.0000     0.0466     0.9988     0.9988    -0.0000
  1 C      5.9771     6.0000     0.0229     3.8738     3.8738     0.0000
  2 H      0.9534     1.0000     0.0466     0.9988     0.9988     0.0000
  3 H      0.9596     1.0000     0.0404     1.0081     1.0081    -0.0000
  4 C      5.9233     6.0000     0.0767     4.4327     4.4327    -0.0000
  5 O      8.2189     8.0000    -0.2189     2.2632     2.2632    -0.0000
  6 O      8.1928     8.0000    -0.1928     2.2066     2.2066    -0.0000
  7 H      0.8215     1.0000     0.1785     1.0358     1.0358     0.0000

  Mayer bond orders larger than 0.100000
B(  0-H ,  1-C ) :   0.9504 B(  1-C ,  2-H ) :   0.9503 B(  1-C ,  3-H ) :   0.9647 
B(  1-C ,  4-C ) :   1.0235 B(  4-C ,  5-O ) :   2.1150 B(  4-C ,  6-O ) :   1.2004 
B(  6-O ,  7-H ) :   0.9500 

-------
TIMINGS
-------

Total SCF time: 0 days 0 hours 0 min 0 sec 

Total time                  ....       0.556 sec
Sum of individual times     ....       0.509 sec  ( 91.5%)

SCF preparation             ....       0.337 sec  ( 60.5%)
Fock matrix formation       ....       0.151 sec  ( 27.1%)
  Startup                   ....       0.001 sec  (  0.6% of F)
  Split-RI-J                ....       0.011 sec  (  7.2% of F)
  Chain of spheres X        ....       0.132 sec  ( 87.8% of F)
  XC integration            ....       0.033 sec  ( 21.7% of F)
    Basis function eval.    ....       0.006 sec  ( 19.0% of XC)
    Density eval.           ....       0.003 sec  (  7.8% of XC)
    XC-Functional eval.     ....       0.002 sec  (  5.4% of XC)
    XC-Potential eval.      ....       0.002 sec  (  7.5% of XC)
Diagonalization             ....       0.000 sec  (  0.0%)
Density matrix formation    ....       0.002 sec  (  0.3%)
Total Energy calculation    ....       0.001 sec  (  0.2%)
Population analysis         ....       0.008 sec  (  1.5%)
Orbital Transformation      ....       0.002 sec  (  0.3%)
Orbital Orthonormalization  ....       0.000 sec  (  0.0%)
DIIS solution               ....       0.003 sec  (  0.4%)
SOSCF solution              ....       0.006 sec  (  1.1%)
Finished LeanSCF after   0.6 sec

Maximum memory used throughout the entire LEANSCF-calculation: 7.1 MB

-------------------------   --------------------
FINAL SINGLE POINT ENERGY      -228.798675401341
-------------------------   --------------------

                                *** OPTIMIZATION RUN DONE ***

		     ------------------------------
			                   _   
			                  | |  
			  __ _  ___   __ _| |_ 
			 / _` |/ _ \ / _` | __|
			| (_| | (_) | (_| | |_ 
			 \__, |\___/ \__,_|\__|
			 __/ |                
			|___/                 

		      A Global Optimizer Algorithm
		     ------------------------------

Global parameters
-----------------
  GOAT version                               ... default
  Minimum global steps                       ... 3
  Number of base workers                     ... 4
  Split workers by                           ... 1
  Final number of workers                    ... 4
  Number of available CPUs                   ... 16
  Parameter list (worker : temperature)      ...  0 : 2903.97,  1 : 1451.98, 
                                                  2 :  725.99,  3 :  363.00 
  GradComp (mean : sigma)                    ... 1.00 : 0.50
  Number of fragments                        ... 1
  Number of atoms                            ... 8
  Flexibility parameter                      ... 0.50
  Optimizations per global step              ... 60
  Optimizations per worker                   ... 15
  *Reached the min. opt. per worker: max(flex * NAtoms, 15) = 15

Filtering criteria
------------------
  RMSD                                       ... 0.125 Angs (atom. pos.)
  EnDiff                                     ... 0.100 kcal/mol
  RotConst                                   ... 1.00-2.50 %
  Maximum Conf. Energy                       ... 6.000 kcal/mol

Thermodynamics
--------------
  Ensemble temperature                       ... 298.15 K
  Degeneracy of conformers                   ... 1
  *No rotamers will be included in Gconf

------------------------------------------------------------------------------
   Iter  MinTemp     MaxEn       GradComp    NOpt   NProcs    Output
------------------------------------------------------------------------------
List of participating nodes    ...  AcOH.goat.0.hostnames

   1     1451.98     24.00    1.00 : 0.50      15        4    AcOH.goat.0.1.out
   3      363.00     24.00    1.00 : 0.50      15        4    AcOH.goat.0.3.out
   0     2903.97     24.00    1.00 : 0.50      15        4    AcOH.goat.0.0.out
   2      725.99     24.00    1.00 : 0.50      15        4    AcOH.goat.0.2.out

			     GOAT Global Iter 1
		Iter    Min En       Sconf       Gconf   
		        Hartree      cal/(molK)  kcal/mol
		=========================================

		   1    -228.798682   1.268       -0.242

List of participating nodes    ...  AcOH.goat.1.hostnames

   1     1451.98     24.00    1.00 : 0.50      15        4    AcOH.goat.1.1.out
   3      363.00     24.00    1.00 : 0.50      15        4    AcOH.goat.1.3.out
   0     2903.97     24.00    1.00 : 0.50      15        4    AcOH.goat.1.0.out
   2      725.99     24.00    1.00 : 0.50      15        4    AcOH.goat.1.2.out

			     GOAT Global Iter 2
		Iter    Min En       Sconf       Gconf   
		        Hartree      cal/(molK)  kcal/mol
		=========================================

		   1    -228.798682   1.268       -0.242
		   2    -228.798682   1.271       -0.244

List of participating nodes    ...  AcOH.goat.2.hostnames

   1     1451.98     24.00    1.00 : 0.50      15        4    AcOH.goat.2.1.out
   3      363.00     24.00    1.00 : 0.50      15        4    AcOH.goat.2.3.out
   0     2903.97     24.00    1.00 : 0.50      15        4    AcOH.goat.2.0.out
   2      725.99     24.00    1.00 : 0.50      15        4    AcOH.goat.2.2.out

			     GOAT Global Iter 3
		Iter    Min En       Sconf       Gconf   
		        Hartree      cal/(molK)  kcal/mol
		=========================================

		   1    -228.798682   1.268       -0.242
		   2    -228.798682   1.271       -0.244
		   3    -228.798682   1.271       -0.244

		Global minimum found!
		Writing structure to AcOH.globalminimum.xyz

		# Final ensemble info #
		Conformer     Energy     Degen.   % total   % cumul.  
		              (kcal/mol)
		------------------------------------------------------
		        0     0.000	     1      66.23      66.23
		        1     0.399	     1      33.77     100.00

		Conformers below 3 kcal/mol: 2
		Lowest energy conformer    : -228.798682 Eh
		Sconf at 298.15 K          :  1.27 cal/(molK)
		Gconf at 298.15 K          : -0.24 kcal/mol

		Writing final ensemble to AcOH.finalensemble.xyz


           ************************************************************
           *        Program running with 16 parallel MPI-processes    *
           *              working on a common directory               *
           ************************************************************

------------------------------------------------------------------------------
                              ORCA PROPERTY CALCULATIONS
------------------------------------------------------------------------------

GBWName                                 ... AcOH.gbw
Number of atoms                         ...      8
Number of basis functions               ...     76
Max core memory                         ...   4096 MB

Electric properties:
Dipole moment                           ... YES
Quadrupole moment                       ...  NO
Static polarizability (Dipole/Dipole)   ...  NO
Static polarizability (Dipole/Quad.)    ...  NO
Static polarizability (Quad./Quad.)     ...  NO
Static polarizability (Velocity)        ...  NO
Static hyperpolarizability              ...  NO

Atomic electric properties:
Dipole moment                           ...  NO
Quadrupole moment                       ...  NO
Static polarizability                   ...  NO

Choice of electric origin               ... Center of mass
Position of electric origin             ...    -0.967838    -0.126321     0.051595

General magnetic properties:
Magnetizability                         ...  NO

EPR properties:
g-Tensor (aka g-matrix)                 ...  NO
Zero-Field splitting spin-orbit         ...  NO
Zero-field splitting spin-spin          ...  NO
Hyperfine couplings                     ...  NO (   0 nuclei)
Quadrupole couplings                    ...  NO (   0 nuclei)
Contact density                         ...  NO (   0 nuclei)

NMR properties:
Chemical shifts                         ...  NO (   0 nuclei)
Spin-rotation constants                 ...  NO (   0 nuclei)
Spin-spin couplings                     ...  NO (   0 nuclei,    0 pairs)

Choice of magnetic origin               ... GIAO
Position of magnetic origin             ...     0.000000     0.000000     0.000000

Properties with geometric perturbations:
SCF Hessian                             ...  NO
IR spectrum                             ...  NO
VCD spectrum                            ...  NO
X-ray spectroscopy properties:
SCF XES/XAS/RIXS spectra                ...  NO

SCF SOC stabilization energy            ...  NO
Diagonal Born-Oppenheimer correction    ...  NO

-------------
DIPOLE MOMENT
-------------

Method             : SCF
Type of density    : Electron Density
Multiplicity       :   1
Irrep              :   0
Energy             :  -228.7986754013413702 Eh
Basis              : AO
                                X                 Y                 Z
Electronic contribution:     -3.395448390      -0.094195870       0.347494989
Nuclear contribution   :      3.738514771       0.591733387      -0.148781289
                        -----------------------------------------
Total Dipole Moment    :      0.343066381       0.497537517       0.198713700
                        -----------------------------------------
Magnitude (a.u.)       :      0.636180208
Magnitude (Debye)      :      1.617041580



--------------------
Rotational spectrum 
--------------------
 
Rotational constants in cm-1:             0.378951             0.314171             0.177489 
Rotational constants in MHz :         11360.679963          9418.613040          5320.981808 

Dipole components along the rotational axes: 
x,y,z [a.u.] :     0.242558     0.588125     0.000598 
x,y,z [Debye]:     0.616533     1.494894     0.001519 

 

Dipole moment calculation done in   0.0 sec 

Maximum memory used throughout the entire PROP-calculation: 4.2 MB

--------------------------------
SUGGESTED CITATIONS FOR THIS RUN
--------------------------------

Below you find a list of papers that are relevant to this ORCA run
We neither can nor want to force you to cite these papers, but we appreciate if you do
You receive ORCA, which is the product of decades of hard work by many enthusiastic individuals, for free
The only thing we kindly ask in return is that you cite our papers,
We deeply appreciate it, if you show your appreciation for ORCA by not just citing the generic ORCA reference.

Please note that relegating all ORCA citations to the supporting information does *not* help us.
SI sections are not indexed - citations you put there will not count into any citation statistics
But we need these citations in order to attract the funding resources that allow us to do what we are doing

Therefore, if you are a happy ORCA user, please consider citing a few of the papers listed below in the main body of your paper

In addition to the list printed below, the program has created the file AcOH.bibtex that contains the list in bibtex format
You can import this file easily into all common literature databanks and citation aid programs


List of essential papers. We consider these as the minimum necessary citations

  1. Neese, F.
     Software update: the ORCA program system, version 6.0
     WIRES Comput. Molec. Sci. 2025 15(1), e70019
     doi.org/10.1002/wcms.7019
  2. de Souza, B.
     GOAT: A Global Optimization Algorithm for Molecules and Atomic Clusters
     Angewandte Chemie 2025 64(18), e202500393
     doi.org/10.1002/anie.202500393

List of papers to cite with high priority. The work reported in these papers was absolutely
necessary for this run to complete.
Our perspective: the developers of density functionals and basis sets usually get cited in chemistry papers
Good! But without the algorithms to do something with them, the functionals or basis sets would not do anything.
Hence, in our opinion, the algorithm design and method developments papers are equally worthy of getting cited

  1. Neese, F.
     An improvement of the resolution of the identity approximation for the formation of the Coulomb matrix
     J. Comp. Chem. 2003 24(14), 1740-1747
     doi.org/10.1002/jcc.10318
  2. Neese, F.; Wennmohs, F.; Hansen, A.; Becker, U.
     Efficient, approximate and parallel Hartree-Fock and hybrid DFT calculations. A 'chain-of-spheres' algorithm for the Hartree-Fock exchange
     Chem. Phys. 2009 356(1-3), 98-109
     doi.org/10.1016/j.chemphys.2008.10.036
  3. Helmich-Paris, B.; de Souza, B.; Neese, F.; Izsák, R.
     An improved chain of spheres for exchange algorithm
     J. Chem. Phys. 2021 155(10), 104109
     doi.org/10.1063/5.0058766
  4. Neese, F.
     The SHARK Integral Generation and Digestion System
     J. Comp. Chem. 2022 44(3), 381
     doi.org/10.1002/jcc.26942

List of suggested additional citations. These are papers that are important in the 'surrounding' of 
of this run, or papers that preceded the highly important papers. If you like your results we are grateful for a citation.

  1. Izsak, R.; Neese, F.
     An overlap fitted chain of spheres exchange method
     J. Chem. Phys. 2011 135 , 144105
     doi.org/10.1063/1.3646921
  2. Izsak, R.; Hansen, A.; Neese, F.
     The resolution of identity and chain of spheres approximations for the LPNO-CCSD singles Fock term
     Molec. Phys. 2012 110 , 2413-2417
     doi.org/10.1080/00268976.2012.687466
  3. Neese, F.
     The ORCA program system
     WIRES Comput. Molec. Sci. 2012 2(1), 73-78
     doi.org/10.1002/wcms.81
  4. Izsak, R.; Neese, F.; Klopper, W.
     Robust fitting techniques in the chain of spheres approximation to the Fock exchange: The role of the complementary space
     J. Chem. Phys. 2013 139 , 
     doi.org/10.1063/1.4819264
  5. Neese, F.
     Software update: the ORCA program system, version 4.0
     WIRES Comput. Molec. Sci. 2018 8(1), 1-6
     doi.org/10.1002/wcms.1327
  6. Neese, F.; Wennmohs, F.; Becker, U.; Riplinger, C.
     The ORCA quantum chemistry program package
     J. Chem. Phys. 2020 152(22), 224108
     doi.org/10.1063/5.0004608
  7. Neese, F.
     Software update: The ORCA program system—Version 5.0
     WIRES Comput. Molec. Sci. 2022 12(1), e1606
     doi.org/10.1002/wcms.1606

List of optional additional citations

  1. Neese, F.
     Approximate second-order SCF convergence for spin unrestricted wavefunctions
     Chem. Phys. Lett. 2000 325(1-3), 93-98
     doi.org/10.1016/s0009-2614(00)00662-x

Timings for individual modules:

Sum of individual times          ...     5280.049 sec (=  88.001 min)
Startup calculation              ...        5.864 sec (=   0.098 min)   0.1 %
SCF iterations                   ...       12.445 sec (=   0.207 min)   0.2 %
Property calculations            ...        0.478 sec (=   0.008 min)   0.0 %
SCF Gradient evaluation          ...        5.852 sec (=   0.098 min)   0.1 %
Geometry relaxation              ...        0.008 sec (=   0.000 min)   0.0 %
GOAT                             ...     5255.401 sec (=  87.590 min)  99.5 %
                             ****ORCA TERMINATED NORMALLY****
TOTAL RUN TIME: 0 days 1 hours 28 minutes 4 seconds 206 msec
