
                                 *****************
                                 * O   R   C   A *
                                 *****************

           --- An Ab Initio, DFT and Semiempirical electronic structure package ---

                  #######################################################
                  #                        -***-                        #
                  #          Department of theory and spectroscopy      #
                  #               Directorship: Frank Neese             #
                  #        Max Planck Institute fuer Kohlenforschung    #
                  #                Kaiser Wilhelm Platz 1               #
                  #                 D-45470 Muelheim/Ruhr               #
                  #                      Germany                        #
                  #                                                     #
                  #                  All rights reserved                #
                  #                        -***-                        #
                  #######################################################


                         Program Version 4.2.1 -  RELEASE  -


 With contributions from (in alphabetic order):
   Daniel Aravena         : Magnetic Suceptibility
   Michael Atanasov       : Ab Initio Ligand Field Theory (pilot matlab implementation)
   Alexander A. Auer      : GIAO ZORA, VPT2
   Ute Becker             : Parallelization
   Giovanni Bistoni       : ED, misc. LED, open-shell LED, HFLD
   Martin Brehm           : Molecular dynamics
   Dmytro Bykov           : SCF Hessian
   Vijay G. Chilkuri      : MRCI spin determinant printing, contributions to CSF-ICE
   Dipayan Datta          : RHF DLPNO-CCSD density
   Achintya Kumar Dutta   : EOM-CC, STEOM-CC
   Dmitry Ganyushin       : Spin-Orbit,Spin-Spin,Magnetic field MRCI
   Miquel Garcia          : C-PCM Hessian, Gaussian charge scheme
   Yang Guo               : DLPNO-NEVPT2, CIM, IAO-localization
   Andreas Hansen         : Spin unrestricted coupled pair/coupled cluster methods
   Benjamin Helmich-Paris : CASSCF linear response (MC-RPA)
   Lee Huntington         : MR-EOM, pCC
   Robert Izsak           : Overlap fitted RIJCOSX, COSX-SCS-MP3, EOM
   Christian Kollmar      : KDIIS, OOCD, Brueckner-CCSD(T), CCSD density
   Simone Kossmann        : Meta GGA functionals, TD-DFT gradient, OOMP2, MP2 Hessian
   Martin Krupicka        : AUTO-CI
   Lucas Lang             : DCDCAS
   Dagmar Lenk            : GEPOL surface, SMD
   Dimitrios Liakos       : Extrapolation schemes; Compound Job, initial MDCI parallelization
   Dimitrios Manganas     : Further ROCIS development; embedding schemes
   Dimitrios Pantazis     : SARC Basis sets
   Taras Petrenko         : DFT Hessian,TD-DFT gradient, ASA, ECA, R-Raman, ABS, FL, XAS/XES, NRVS
   Peter Pinski           : DLPNO-MP2, DLPNO-MP2 Gradient
   Christoph Reimann      : Effective Core Potentials
   Marius Retegan         : Local ZFS, SOC
   Christoph Riplinger    : Optimizer, TS searches, QM/MM, DLPNO-CCSD(T), (RO)-DLPNO pert. Triples
   Tobias Risthaus        : Range-separated hybrids, TD-DFT gradient, RPA, STAB
   Michael Roemelt        : Original ROCIS implementation
   Masaaki Saitow         : Open-shell DLPNO-CCSD energy and density
   Barbara Sandhoefer     : DKH picture change effects
   Avijit Sen             : IP-ROCIS
   Kantharuban Sivalingam : CASSCF convergence, NEVPT2, FIC-MRCI
   Bernardo de Souza      : ESD, SOC TD-DFT
   Georgi Stoychev        : AutoAux, RI-MP2 NMR
   Willem Van den Heuvel  : Paramagnetic NMR
   Boris Wezisla          : Elementary symmetry handling
   Frank Wennmohs         : Technical directorship


 We gratefully acknowledge several colleagues who have allowed us to
 interface, adapt or use parts of their codes:
   Stefan Grimme, W. Hujo, H. Kruse,             : VdW corrections, initial TS optimization,
                  C. Bannwarth                     DFT functionals, gCP, sTDA/sTD-DF
   Ed Valeev, F. Pavosevic, A. Kumar             : LibInt (2-el integral package), F12 methods
   Garnet Chan, S. Sharma, J. Yang, R. Olivares  : DMRG
   Ulf Ekstrom                                   : XCFun DFT Library
   Mihaly Kallay                                 : mrcc  (arbitrary order and MRCC methods)
   Andreas Klamt, Michael Diedenhofen            : otool_cosmo (COSMO solvation model)
   Jiri Pittner, Ondrej Demel                    : Mk-CCSD
   Frank Weinhold                                : gennbo (NPA and NBO analysis)
   Christopher J. Cramer and Donald G. Truhlar   : smd solvation model
   Lars Goerigk                                  : TD-DFT with DH, B97 family of functionals
   V. Asgeirsson, H. Jonsson                     : NEB implementation
   FAccTs GmbH                                   : IRC, NEB, NEB-TS, Multilevel, MM, QM/MM, CI optimization
   S Lehtola, MJT Oliveira, MAL Marques          : LibXC Library


 Your calculation uses the libint2 library for the computation of 2-el integrals
 For citations please refer to: http://libint.valeyev.net

 Your ORCA version has been built with support for libXC version: 4.2.3
 For citations please refer to: https://tddft.org/programs/libxc/

 This ORCA versions uses:
   CBLAS   interface :  Fast vector & matrix operations
   LAPACKE interface :  Fast linear algebra routines
   SCALAPACK package :  Parallel linear algebra routines


----- Orbital basis set information -----
Your calculation utilizes the basis: def2-SVP
   F. Weigend and R. Ahlrichs, Phys. Chem. Chem. Phys. 7, 3297 (2005).

================================================================================
                                        WARNINGS
                       Please study these warnings very carefully!
================================================================================


WARNING: Geometry Optimization
  ===> : Switching off AutoStart
         For restart on a previous wavefunction, please use MOREAD

INFO   : the flag for use of LIBINT has been found!

================================================================================
                                       INPUT FILE
================================================================================
NAME = Uracil_m1.inp
|  1> !B3LYP def2-SVP OPT FREQ
|  2> %pal
|  3> nprocs 16
|  4> end
|  5> * xyz -1 1
|  6>    C        1.33878        0.51508       -0.01708
|  7>    C        1.24526       -0.81240        0.09268
|  8>    N       -0.02415       -1.41966        0.11620
|  9>    C       -1.17237       -0.61743        0.00888
| 10>    N       -1.05625        0.71979       -0.10636
| 11>    C        0.13881        1.36406       -0.11760
| 12>    O       -2.19305       -1.27075        0.03788
| 13>    O        0.23534        2.57757       -0.20466
| 14>    H        2.15069       -1.41636        0.16463
| 15>    H       -1.89431        1.28315       -0.17534
| 16>    H        2.29444        1.03083       -0.03758
| 17> **                         ****END OF INPUT****
================================================================================

                       *****************************
                       * Geometry Optimization Run *
                       *****************************

Geometry optimization settings:
Update method            Update   .... BFGS
Choice of coordinates    CoordSys .... Z-matrix Internals
Initial Hessian          InHess   .... Almoef's Model

Convergence Tolerances:
Energy Change            TolE     ....  5.0000e-06 Eh
Max. Gradient            TolMAXG  ....  3.0000e-04 Eh/bohr
RMS Gradient             TolRMSG  ....  1.0000e-04 Eh/bohr
Max. Displacement        TolMAXD  ....  4.0000e-03 bohr
RMS Displacement         TolRMSD  ....  2.0000e-03 bohr
Strict Convergence                ....  False
------------------------------------------------------------------------------
                        ORCA OPTIMIZATION COORDINATE SETUP
------------------------------------------------------------------------------

The optimization will be done in new redundant internal coordinates
Making redundant internal coordinates   ...  (new redundants) done
Evaluating the initial hessian          ...  (Almloef) done
Evaluating the coordinates              ...  done
Calculating the B-matrix                .... done
Calculating the G-matrix                .... done
Diagonalizing the G-matrix              .... done
The first mode is                       ....   20
The number of degrees of freedom        ....   27

    -----------------------------------------------------------------
                    Redundant Internal Coordinates


    -----------------------------------------------------------------
         Definition                    Initial Value    Approx d2E/dq
    -----------------------------------------------------------------
      1. B(C   1,C   0)                  1.3353         0.763883   
      2. B(N   2,C   1)                  1.4074         0.524984   
      3. B(C   3,N   2)                  1.4048         0.529959   
      4. B(N   4,C   3)                  1.3472         0.654901   
      5. B(C   5,N   4)                  1.3577         0.630073   
      6. B(C   5,C   0)                  1.4734         0.459979   
      7. B(O   6,C   3)                  1.2122         1.075292   
      8. B(O   7,C   5)                  1.2205         1.043225   
      9. B(H   8,C   1)                  1.0908         0.359102   
     10. B(H   9,N   4)                  1.0122         0.429281   
     11. B(H  10,C   0)                  1.0861         0.365240   
     12. A(C   1,C   0,C   5)          121.4273         0.427120   
     13. A(C   1,C   0,H  10)          122.3604         0.366563   
     14. A(C   5,C   0,H  10)          116.2123         0.336458   
     15. A(N   2,C   1,H   8)          120.5772         0.340907   
     16. A(C   0,C   1,N   2)          119.5712         0.434522   
     17. A(C   0,C   1,H   8)          119.8515         0.365500   
     18. A(C   1,N   2,C   3)          119.3104         0.404463   
     19. A(N   2,C   3,N   4)          120.1931         0.420653   
     20. A(N   4,C   3,O   6)          127.5593         0.478255   
     21. A(N   2,C   3,O   6)          112.2474         0.460044   
     22. A(C   5,N   4,H   9)          117.6530         0.359167   
     23. A(C   3,N   4,H   9)          119.1391         0.361541   
     24. A(C   3,N   4,C   5)          123.2019         0.433900   
     25. A(C   0,C   5,N   4)          116.2877         0.410035   
     26. A(N   4,C   5,O   7)          122.8224         0.472229   
     27. A(C   0,C   5,O   7)          120.8900         0.448847   
     28. D(N   2,C   1,C   0,C   5)     -0.1322         0.041764   
     29. D(H   8,C   1,C   0,H  10)     -0.0495         0.041764   
     30. D(N   2,C   1,C   0,H  10)    179.8668         0.041764   
     31. D(H   8,C   1,C   0,C   5)    179.9514         0.041764   
     32. D(C   3,N   2,C   1,H   8)   -179.3957         0.019858   
     33. D(C   3,N   2,C   1,C   0)      0.6885         0.019858   
     34. D(N   4,C   3,N   2,C   1)     -0.4339         0.020250   
     35. D(O   6,C   3,N   2,C   1)    179.7146         0.020250   
     36. D(H   9,N   4,C   3,O   6)      0.3028         0.035048   
     37. D(H   9,N   4,C   3,N   2)   -179.5238         0.035048   
     38. D(C   5,N   4,C   3,O   6)    179.3964         0.035048   
     39. D(C   5,N   4,C   3,N   2)     -0.4302         0.035048   
     40. D(O   7,C   5,C   0,C   1)    179.2909         0.014413   
     41. D(N   4,C   5,C   0,H  10)    179.3277         0.014413   
     42. D(N   4,C   5,C   0,C   1)     -0.6732         0.014413   
     43. D(O   7,C   5,N   4,H   9)      0.0995         0.032229   
     44. D(O   7,C   5,N   4,C   3)   -179.0068         0.032229   
     45. D(C   0,C   5,N   4,H   9)   -179.9371         0.032229   
     46. D(C   0,C   5,N   4,C   3)      0.9566         0.032229   
     47. D(O   7,C   5,C   0,H  10)     -0.7082         0.014413   
    -----------------------------------------------------------------

Number of atoms                         .... 11
Number of degrees of freedom            .... 47

         *************************************************************
         *                GEOMETRY OPTIMIZATION CYCLE   1            *
         *************************************************************
---------------------------------
CARTESIAN COORDINATES (ANGSTROEM)
---------------------------------
  C      1.338780    0.515080   -0.017080
  C      1.245260   -0.812400    0.092680
  N     -0.024150   -1.419660    0.116200
  C     -1.172370   -0.617430    0.008880
  N     -1.056250    0.719790   -0.106360
  C      0.138810    1.364060   -0.117600
  O     -2.193050   -1.270750    0.037880
  O      0.235340    2.577570   -0.204660
  H      2.150690   -1.416360    0.164630
  H     -1.894310    1.283150   -0.175340
  H      2.294440    1.030830   -0.037580

----------------------------
CARTESIAN COORDINATES (A.U.)
----------------------------
  NO LB      ZA    FRAG     MASS         X           Y           Z
   0 C     6.0000    0    12.011    2.529928    0.973360   -0.032277
   1 C     6.0000    0    12.011    2.353200   -1.535214    0.175140
   2 N     7.0000    0    14.007   -0.045637   -2.682769    0.219586
   3 C     6.0000    0    12.011   -2.215458   -1.166774    0.016781
   4 N     7.0000    0    14.007   -1.996023    1.360206   -0.200991
   5 C     6.0000    0    12.011    0.262313    2.577700   -0.222232
   6 O     8.0000    0    15.999   -4.144264   -2.401369    0.071583
   7 O     8.0000    0    15.999    0.444728    4.870901   -0.386751
   8 H     1.0000    0     1.008    4.064215   -2.676533    0.311106
   9 H     1.0000    0     1.008   -3.579727    2.424802   -0.331345
  10 H     1.0000    0     1.008    4.335863    1.947986   -0.071016

--------------------------------
INTERNAL COORDINATES (ANGSTROEM)
--------------------------------
 C      0   0   0     0.000000000000     0.00000000     0.00000000
 C      1   0   0     1.335288882003     0.00000000     0.00000000
 N      2   1   0     1.407380419823   119.57115907     0.00000000
 C      3   2   1     1.404813056495   119.31044904     0.68851628
 N      4   3   2     1.347190202013   120.19312262   359.56613162
 C      5   4   3     1.357710784409   123.20192506   359.56982096
 O      4   3   2     1.212211072710   112.24738041   179.71462617
 O      6   5   4     1.220452377031   122.82236896   180.99322907
 H      2   1   3     1.090755687127   119.85153982   180.08361692
 H      5   4   3     1.012164657356   119.13913307   180.47615880
 H      1   2   3     1.086141955777   122.36044792   179.86684319

---------------------------
INTERNAL COORDINATES (A.U.)
---------------------------
 C      0   0   0     0.000000000000     0.00000000     0.00000000
 C      1   0   0     2.523330296655     0.00000000     0.00000000
 N      2   1   0     2.659563559708   119.57115907     0.00000000
 C      3   2   1     2.654711946133   119.31044904     0.68851628
 N      4   3   2     2.545820532107   120.19312262   359.56613162
 C      5   4   3     2.565701551604   123.20192506   359.56982096
 O      4   3   2     2.290746943928   112.24738041   179.71462617
 O      6   5   4     2.306320752081   122.82236896   180.99322907
 H      2   1   3     2.061229527687   119.85153982   180.08361692
 H      5   4   3     1.912714004837   119.13913307   180.47615880
 H      1   2   3     2.052510838981   122.36044792   179.86684319

---------------------
BASIS SET INFORMATION
---------------------
There are 4 groups of distinct atoms

 Group   1 Type C   : 7s4p1d contracted to 3s2p1d pattern {511/31/1}
 Group   2 Type N   : 7s4p1d contracted to 3s2p1d pattern {511/31/1}
 Group   3 Type O   : 7s4p1d contracted to 3s2p1d pattern {511/31/1}
 Group   4 Type H   : 4s1p contracted to 2s1p pattern {31/1}

Atom   0C    basis set group =>   1
Atom   1C    basis set group =>   1
Atom   2N    basis set group =>   2
Atom   3C    basis set group =>   1
Atom   4N    basis set group =>   2
Atom   5C    basis set group =>   1
Atom   6O    basis set group =>   3
Atom   7O    basis set group =>   3
Atom   8H    basis set group =>   4
Atom   9H    basis set group =>   4
Atom  10H    basis set group =>   4


           ************************************************************
           *        Program running with 16 parallel MPI-processes    *
           *              working on a common directory               *
           ************************************************************
------------------------------------------------------------------------------
                           ORCA GTO INTEGRAL CALCULATION
------------------------------------------------------------------------------

                         BASIS SET STATISTICS AND STARTUP INFO

 # of primitive gaussian shells          ...  111
 # of primitive gaussian functions       ...  213
 # of contracted shells                  ...   57
 # of contracted basis functions         ...  127
 Highest angular momentum                ...    2
 Maximum contraction depth               ...    5
 Integral package used                   ... LIBINT
 Integral threshhold            Thresh   ...  2.500e-11
 Primitive cut-off              TCut     ...  2.500e-12


------------------------------ INTEGRAL EVALUATION ----------------------------


 * One electron integrals 
 Pre-screening matrix                    ... done
 Shell pair data                         ... done (   0.001 sec)



           ************************************************************
           *        Program running with 16 parallel MPI-processes    *
           *              working on a common directory               *
           ************************************************************
-------------------------------------------------------------------------------
                                 ORCA SCF
-------------------------------------------------------------------------------

------------
SCF SETTINGS
------------
Hamiltonian:
 Density Functional     Method          .... DFT(GTOs)
 Exchange Functional    Exchange        .... B88
   X-Alpha parameter    XAlpha          ....  0.666667
   Becke's b parameter  XBeta           ....  0.004200
 Correlation Functional Correlation     .... LYP
 LDA part of GGA corr.  LDAOpt          .... VWN-5
 Gradients option       PostSCFGGA      .... off
 Hybrid DFT is turned on
   Fraction HF Exchange ScalHFX         ....  0.200000
   Scaling of DF-GGA-X  ScalDFX         ....  0.720000
   Scaling of DF-GGA-C  ScalDFC         ....  0.810000
   Scaling of DF-LDA-C  ScalLDAC        ....  1.000000
   Perturbative correction              ....  0.000000
   Density functional embedding theory  .... OFF
   NL short-range parameter             ....  4.800000


General Settings:
 Integral files         IntName         .... Uracil_m1
 Hartree-Fock type      HFTyp           .... RHF
 Total Charge           Charge          ....   -1
 Multiplicity           Mult            ....    1
 Number of Electrons    NEL             ....   58
 Basis Dimension        Dim             ....  127
 Nuclear Repulsion      ENuc            ....    345.7566313242 Eh

Convergence Acceleration:
 DIIS                   CNVDIIS         .... on
   Start iteration      DIISMaxIt       ....    12
   Startup error        DIISStart       ....  0.200000
   # of expansion vecs  DIISMaxEq       ....     5
   Bias factor          DIISBfac        ....   1.050
   Max. coefficient     DIISMaxC        ....  10.000
 Newton-Raphson         CNVNR           .... off
 SOSCF                  CNVSOSCF        .... on
   Start iteration      SOSCFMaxIt      ....   150
   Startup grad/error   SOSCFStart      ....  0.003300
 Level Shifting         CNVShift        .... on
   Level shift para.    LevelShift      ....    0.2500
   Turn off err/grad.   ShiftErr        ....    0.0010
 Zerner damping         CNVZerner       .... off
 Static damping         CNVDamp         .... on
   Fraction old density DampFac         ....    0.7000
   Max. Damping (<1)    DampMax         ....    0.9800
   Min. Damping (>=0)   DampMin         ....    0.0000
   Turn off err/grad.   DampErr         ....    0.1000
 Fernandez-Rico         CNVRico         .... off

SCF Procedure:
 Maximum # iterations   MaxIter         ....   125
 SCF integral mode      SCFMode         .... Direct
   Integral package                     .... LIBINT
 Reset frequency        DirectResetFreq ....    20
 Integral Threshold     Thresh          ....  2.500e-11 Eh
 Primitive CutOff       TCut            ....  2.500e-12 Eh

Convergence Tolerance:
 Convergence Check Mode ConvCheckMode   .... Total+1el-Energy
 Convergence forced     ConvForced      .... 0
 Energy Change          TolE            ....  1.000e-08 Eh
 1-El. energy change                    ....  1.000e-05 Eh
 Orbital Gradient       TolG            ....  1.000e-05
 Orbital Rotation angle TolX            ....  1.000e-05
 DIIS Error             TolErr          ....  5.000e-07


Diagonalization of the overlap matrix:
Smallest eigenvalue                        ... 1.297e-03
Time for diagonalization                   ...    0.005 sec
Threshold for overlap eigenvalues          ... 1.000e-08
Number of eigenvalues below threshold      ... 0
Time for construction of square roots      ...    0.002 sec
Total time needed                          ...    0.007 sec

-------------------
DFT GRID GENERATION
-------------------

General Integration Accuracy     IntAcc      ...  4.340
Radial Grid Type                 RadialGrid  ... Gauss-Chebyshev
Angular Grid (max. acc.)         AngularGrid ... Lebedev-110
Angular grid pruning method      GridPruning ... 3 (G Style)
Weight generation scheme         WeightScheme... Becke
Basis function cutoff            BFCut       ...    1.0000e-11
Integration weight cutoff        WCut        ...    1.0000e-14
Grids for H and He will be reduced by one unit

# of grid points (after initial pruning)     ...  15842 (   0.0 sec)
# of grid points (after weights+screening)   ...  14964 (   0.0 sec)
nearest neighbour list constructed           ...    0.0 sec
Grid point re-assignment to atoms done       ...    0.0 sec
Grid point division into batches done        ...    0.0 sec
Reduced shell lists constructed in    0.0 sec

Total number of grid points                  ...    14964
Total number of batches                      ...      238
Average number of points per batch           ...       62
Average number of grid points per atom       ...     1360
Average number of shells per batch           ...    45.50 (79.82%)
Average number of basis functions per batch  ...   105.62 (83.17%)
Average number of large shells per batch     ...    40.56 (89.15%)
Average number of large basis fcns per batch ...    90.94 (86.09%)
Maximum spatial batch extension              ...   3.93,  4.34, 19.27 au
Average spatial batch extension              ...   0.13,  0.13,  0.26 au

Time for grid setup =    0.048 sec

------------------------------
INITIAL GUESS: MODEL POTENTIAL
------------------------------
Loading Hartree-Fock densities                     ... done
Calculating cut-offs                               ... done
Setting up the integral package                    ... done
Initializing the effective Hamiltonian             ... done
Starting the Coulomb interaction                   ... done (   0.0 sec)
Reading the grid                                   ... done
Mapping shells                                     ... done
Starting the XC term evaluation                    ... done (   0.0 sec)
  promolecular density results
     # of electrons  =     56.995926838
     EX              =    -50.989016409
     EC              =     -2.000245323
     EX+EC           =    -52.989261732
Transforming the Hamiltonian                       ... done (   0.0 sec)
Diagonalizing the Hamiltonian                      ... done (   0.0 sec)
Back transforming the eigenvectors                 ... done (   0.0 sec)
Now organizing SCF variables                       ... done
                      ------------------
                      INITIAL GUESS DONE (   0.2 sec)
                      ------------------
--------------
SCF ITERATIONS
--------------
ITER       Energy         Delta-E        Max-DP      RMS-DP      [F,P]     Damp
               ***  Starting incremental Fock matrix formation  ***
  0   -413.3575766780   0.000000000000 0.18900326  0.00530709  0.3040148 0.7000
  1   -413.5287671013  -0.171190423367 0.12703846  0.00342120  0.1234343 0.7000
                               ***Turning on DIIS***
  2   -413.5896059358  -0.060838834490 0.13103904  0.00460922  0.0495741 0.0000
  3   -413.6932017284  -0.103595792556 0.10115659  0.00249413  0.0610327 0.0000
  4   -413.7125520899  -0.019350361526 0.01521151  0.00060276  0.0183343 0.0000
  5   -413.7142869770  -0.001734887106 0.00572367  0.00021161  0.0039884 0.0000
                      *** Initiating the SOSCF procedure ***
                           *** Shutting down DIIS ***
                      *** Re-Reading the Fockian *** 
                      *** Removing any level shift *** 
ITER      Energy       Delta-E        Grad      Rot      Max-DP    RMS-DP
  6   -413.71434974  -0.0000627649  0.000482  0.000482  0.001840  0.000079
               *** Restarting incremental Fock matrix formation ***
  7   -413.71436453  -0.0000147922  0.000249  0.000811  0.001658  0.000060
  8   -413.71436408   0.0000004571  0.000458  0.001059  0.001007  0.000029
  9   -413.71436683  -0.0000027541  0.000103  0.000362  0.000456  0.000018
 10   -413.71436687  -0.0000000339  0.000063  0.000116  0.000126  0.000006
 11   -413.71436700  -0.0000001399  0.000022  0.000063  0.000173  0.000005
 12   -413.71436700   0.0000000073  0.000031  0.000029  0.000086  0.000002
 13   -413.71436702  -0.0000000192  0.000005  0.000017  0.000030  0.000001
 14   -413.71436702   0.0000000001  0.000007  0.000011  0.000012  0.000001
                 **** Energy Check signals convergence ****
              ***Rediagonalizing the Fockian in SOSCF/NRSCF***

               *****************************************************
               *                     SUCCESS                       *
               *           SCF CONVERGED AFTER  15 CYCLES          *
               *****************************************************

Setting up the final grid:

General Integration Accuracy     IntAcc      ...  4.670
Radial Grid Type                 RadialGrid  ... Gauss-Chebyshev
Angular Grid (max. acc.)         AngularGrid ... Lebedev-302
Angular grid pruning method      GridPruning ... 3 (G Style)
Weight generation scheme         WeightScheme... Becke
Basis function cutoff            BFCut       ...    1.0000e-11
Integration weight cutoff        WCut        ...    1.0000e-14
Grids for H and He will be reduced by one unit

# of grid points (after initial pruning)     ...  59878 (   0.0 sec)
# of grid points (after weights+screening)   ...  55902 (   0.0 sec)
nearest neighbour list constructed           ...    0.0 sec
Grid point re-assignment to atoms done       ...    0.0 sec
Grid point division into batches done        ...    0.3 sec
Reduced shell lists constructed in    0.3 sec

Total number of grid points                  ...    55902
Total number of batches                      ...      881
Average number of points per batch           ...       63
Average number of grid points per atom       ...     5082
Average number of shells per batch           ...    46.00 (80.70%)
Average number of basis functions per batch  ...   105.61 (83.16%)
Average number of large shells per batch     ...    38.33 (83.33%)
Average number of large basis fcns per batch ...    85.07 (80.55%)
Maximum spatial batch extension              ...   3.44,  3.38, 16.99 au
Average spatial batch extension              ...   0.09,  0.09,  0.12 au

Final grid set up in    0.3 sec
Final integration                            ... done (   0.1 sec)
Change in XC energy                          ...    -0.000499102
Integrated number of electrons               ...    57.999998126
Previous integrated no of electrons          ...    57.997911157

----------------
TOTAL SCF ENERGY
----------------

Total Energy       :         -413.71486612 Eh          -11257.75384 eV

Components:
Nuclear Repulsion  :          345.75663132 Eh            9408.51626 eV
Electronic Energy  :         -759.47149744 Eh          -20666.27010 eV
One Electron Energy:        -1260.50784095 Eh          -34300.16214 eV
Two Electron Energy:          501.03634351 Eh           13633.89204 eV

Virial components:
Potential Energy   :         -824.33316607 Eh          -22431.24583 eV
Kinetic Energy     :          410.61829995 Eh           11173.49199 eV
Virial Ratio       :            2.00754123


DFT components:
N(Alpha)           :       28.999999063136 electrons
N(Beta)            :       28.999999063136 electrons
N(Total)           :       57.999998126272 electrons
E(X)               :      -41.199085107320 Eh       
E(C)               :       -2.391231177538 Eh       
E(XC)              :      -43.590316284858 Eh       
DFET-embed. en.    :        0.000000000000 Eh       

---------------
SCF CONVERGENCE
---------------

  Last Energy change         ...   -1.1398e-09  Tolerance :   1.0000e-08
  Last MAX-Density change    ...    5.8552e-06  Tolerance :   1.0000e-07
  Last RMS-Density change    ...    2.4981e-07  Tolerance :   5.0000e-09
  Last Orbital Gradient      ...    1.1716e-06  Tolerance :   1.0000e-05
  Last Orbital Rotation      ...    3.6181e-06  Tolerance :   1.0000e-05

             **** THE GBW FILE WAS UPDATED (Uracil_m1.gbw) ****
             **** DENSITY FILE WAS UPDATED (Uracil_m1.scfp) ****
             **** ENERGY FILE WAS UPDATED (Uracil_m1.en.tmp) ****
             **** THE GBW FILE WAS UPDATED (Uracil_m1.gbw) ****
             **** DENSITY FILE WAS UPDATED (Uracil_m1.scfp) ****
----------------
ORBITAL ENERGIES
----------------

  NO   OCC          E(Eh)            E(eV) 
   0   2.0000     -18.915605      -514.7198 
   1   2.0000     -18.891712      -514.0696 
   2   2.0000     -14.198441      -386.3592 
   3   2.0000     -14.095817      -383.5667 
   4   2.0000     -10.107638      -275.0428 
   5   2.0000     -10.105710      -274.9903 
   6   2.0000     -10.041779      -273.2507 
   7   2.0000      -9.989313      -271.8230 
   8   2.0000      -0.864778       -23.5318 
   9   2.0000      -0.832903       -22.6645 
  10   2.0000      -0.754188       -20.5225 
  11   2.0000      -0.673111       -18.3163 
  12   2.0000      -0.556885       -15.1536 
  13   2.0000      -0.469835       -12.7849 
  14   2.0000      -0.458384       -12.4733 
  15   2.0000      -0.367760       -10.0073 
  16   2.0000      -0.328282        -8.9330 
  17   2.0000      -0.291639        -7.9359 
  18   2.0000      -0.283658        -7.7187 
  19   2.0000      -0.250743        -6.8231 
  20   2.0000      -0.228726        -6.2240 
  21   2.0000      -0.210973        -5.7409 
  22   2.0000      -0.203420        -5.5353 
  23   2.0000      -0.141759        -3.8574 
  24   2.0000      -0.100979        -2.7478 
  25   2.0000      -0.086010        -2.3404 
  26   2.0000      -0.067952        -1.8491 
  27   2.0000      -0.055193        -1.5019 
  28   2.0000      -0.013868        -0.3774 
  29   0.0000       0.169036         4.5997 
  30   0.0000       0.218062         5.9338 
  31   0.0000       0.221405         6.0247 
  32   0.0000       0.232742         6.3332 
  33   0.0000       0.283314         7.7094 
  34   0.0000       0.330215         8.9856 
  35   0.0000       0.363322         9.8865 
  36   0.0000       0.390889        10.6366 
  37   0.0000       0.414254        11.2724 
  38   0.0000       0.462368        12.5817 
  39   0.0000       0.482442        13.1279 
  40   0.0000       0.518196        14.1008 
  41   0.0000       0.553306        15.0562 
  42   0.0000       0.588525        16.0146 
  43   0.0000       0.608919        16.5695 
  44   0.0000       0.613638        16.6979 
  45   0.0000       0.639349        17.3976 
  46   0.0000       0.691853        18.8263 
  47   0.0000       0.701946        19.1009 
  48   0.0000       0.720065        19.5940 
  49   0.0000       0.728378        19.8202 
  50   0.0000       0.761360        20.7177 
  51   0.0000       0.782638        21.2967 
  52   0.0000       0.795862        21.6565 
  53   0.0000       0.803401        21.8617 
  54   0.0000       0.836157        22.7530 
  55   0.0000       0.866909        23.5898 
  56   0.0000       0.877875        23.8882 
  57   0.0000       0.903931        24.5972 
  58   0.0000       0.937329        25.5060 
  59   0.0000       0.956905        26.0387 
  60   0.0000       0.983125        26.7522 
  61   0.0000       0.987542        26.8724 
  62   0.0000       1.049606        28.5612 
  63   0.0000       1.100562        29.9478 
  64   0.0000       1.111204        30.2374 
  65   0.0000       1.161059        31.5940 
  66   0.0000       1.214018        33.0351 
  67   0.0000       1.215622        33.0787 
  68   0.0000       1.265555        34.4375 
  69   0.0000       1.273092        34.6426 
  70   0.0000       1.306223        35.5441 
  71   0.0000       1.324748        36.0482 
  72   0.0000       1.402294        38.1583 
  73   0.0000       1.406773        38.2802 
  74   0.0000       1.462195        39.7883 
  75   0.0000       1.470209        40.0064 
  76   0.0000       1.493021        40.6272 
  77   0.0000       1.505930        40.9784 
  78   0.0000       1.579013        42.9671 
  79   0.0000       1.595609        43.4187 
  80   0.0000       1.702418        46.3252 
  81   0.0000       1.707169        46.4544 
  82   0.0000       1.708222        46.4831 
  83   0.0000       1.771699        48.2104 
  84   0.0000       1.858902        50.5833 
  85   0.0000       1.908412        51.9305 
  86   0.0000       1.948413        53.0190 
  87   0.0000       1.972900        53.6853 
  88   0.0000       2.000120        54.4260 
  89   0.0000       2.037480        55.4426 
  90   0.0000       2.039777        55.5051 
  91   0.0000       2.118693        57.6526 
  92   0.0000       2.140807        58.2543 
  93   0.0000       2.148564        58.4654 
  94   0.0000       2.196381        59.7666 
  95   0.0000       2.234352        60.7998 
  96   0.0000       2.294228        62.4291 
  97   0.0000       2.367928        64.4346 
  98   0.0000       2.396310        65.2069 
  99   0.0000       2.400580        65.3231 
 100   0.0000       2.439606        66.3851 
 101   0.0000       2.572863        70.0112 
 102   0.0000       2.647236        72.0349 
 103   0.0000       2.670246        72.6611 
 104   0.0000       2.692456        73.2655 
 105   0.0000       2.729362        74.2697 
 106   0.0000       2.731469        74.3270 
 107   0.0000       2.784081        75.7587 
 108   0.0000       2.817626        76.6715 
 109   0.0000       2.881225        78.4021 
 110   0.0000       2.898964        78.8848 
 111   0.0000       2.915508        79.3350 
 112   0.0000       2.947544        80.2067 
 113   0.0000       2.970098        80.8205 
 114   0.0000       3.068885        83.5086 
 115   0.0000       3.078101        83.7594 
 116   0.0000       3.141006        85.4711 
 117   0.0000       3.231462        87.9325 
 118   0.0000       3.285376        89.3996 
 119   0.0000       3.338563        90.8469 
 120   0.0000       3.391052        92.2752 
 121   0.0000       3.398929        92.4896 
 122   0.0000       3.610104        98.2359 
 123   0.0000       3.670689        99.8845 
 124   0.0000       3.777552       102.7924 
 125   0.0000       3.872085       105.3648 
 126   0.0000       3.978926       108.2721 

                    ********************************
                    * MULLIKEN POPULATION ANALYSIS *
                    ********************************

-----------------------
MULLIKEN ATOMIC CHARGES
-----------------------
   0 C :   -0.160221
   1 C :    0.106770
   2 N :   -0.317335
   3 C :    0.004839
   4 N :   -0.015098
   5 C :    0.076375
   6 O :   -0.288752
   7 O :   -0.314086
   8 H :   -0.075084
   9 H :    0.077086
  10 H :   -0.094493
Sum of atomic charges:   -1.0000000

--------------------------------
MULLIKEN REDUCED ORBITAL CHARGES
--------------------------------
  0 C s       :     3.203220  s :     3.203220
      pz      :     1.219820  p :     2.927285
      px      :     0.866977
      py      :     0.840488
      dz2     :     0.002645  d :     0.029716
      dxz     :     0.001557
      dyz     :     0.004868
      dx2y2   :     0.008889
      dxy     :     0.011757
  1 C s       :     3.105784  s :     3.105784
      pz      :     0.947014  p :     2.732244
      px      :     0.859074
      py      :     0.926156
      dz2     :     0.003337  d :     0.055203
      dxz     :     0.006624
      dyz     :     0.010158
      dx2y2   :     0.016611
      dxy     :     0.018472
  2 N s       :     3.569459  s :     3.569459
      pz      :     1.325045  p :     3.725762
      px      :     0.914294
      py      :     1.486423
      dz2     :     0.003183  d :     0.022114
      dxz     :     0.002675
      dyz     :     0.003147
      dx2y2   :     0.003068
      dxy     :     0.010042
  3 C s       :     3.034955  s :     3.034955
      pz      :     0.893735  p :     2.824359
      px      :     0.968319
      py      :     0.962306
      dz2     :     0.007221  d :     0.135847
      dxz     :     0.023546
      dyz     :     0.018153
      dx2y2   :     0.050185
      dxy     :     0.036742
  4 N s       :     3.294289  s :     3.294289
      pz      :     1.613837  p :     3.699832
      px      :     1.045314
      py      :     1.040681
      dz2     :     0.002084  d :     0.020977
      dxz     :     0.001897
      dyz     :     0.003147
      dx2y2   :     0.006442
      dxy     :     0.007408
  5 C s       :     3.016376  s :     3.016376
      pz      :     0.859408  p :     2.789685
      px      :     0.991597
      py      :     0.938680
      dz2     :     0.006636  d :     0.117564
      dxz     :     0.011164
      dyz     :     0.025804
      dx2y2   :     0.026241
      dxy     :     0.047720
  6 O s       :     3.689238  s :     3.689238
      pz      :     1.501915  p :     4.582430
      px      :     1.478933
      py      :     1.601582
      dz2     :     0.002024  d :     0.017084
      dxz     :     0.003524
      dyz     :     0.001704
      dx2y2   :     0.003833
      dxy     :     0.005999
  7 O s       :     3.693278  s :     3.693278
      pz      :     1.491356  p :     4.604033
      px      :     1.770565
      py      :     1.342112
      dz2     :     0.001990  d :     0.016775
      dxz     :     0.000098
      dyz     :     0.005066
      dx2y2   :     0.006007
      dxy     :     0.003614
  8 H s       :     1.054001  s :     1.054001
      pz      :     0.004226  p :     0.021083
      px      :     0.009649
      py      :     0.007207
  9 H s       :     0.880757  s :     0.880757
      pz      :     0.010914  p :     0.042157
      px      :     0.018844
      py      :     0.012399
 10 H s       :     1.071189  s :     1.071189
      pz      :     0.006246  p :     0.023304
      px      :     0.010887
      py      :     0.006171


                     *******************************
                     * LOEWDIN POPULATION ANALYSIS *
                     *******************************

----------------------
LOEWDIN ATOMIC CHARGES
----------------------
   0 C :   -0.209118
   1 C :    0.000752
   2 N :   -0.287175
   3 C :   -0.007326
   4 N :    0.016530
   5 C :    0.030215
   6 O :   -0.294549
   7 O :   -0.300474
   8 H :   -0.008320
   9 H :    0.064234
  10 H :   -0.004768

-------------------------------
LOEWDIN REDUCED ORBITAL CHARGES
-------------------------------
  0 C s       :     2.874124  s :     2.874124
      pz      :     1.178102  p :     3.248424
      px      :     1.008198
      py      :     1.062124
      dz2     :     0.007460  d :     0.086571
      dxz     :     0.003178
      dyz     :     0.010713
      dx2y2   :     0.027639
      dxy     :     0.037580
  1 C s       :     2.868699  s :     2.868699
      pz      :     0.922964  p :     2.996942
      px      :     0.994074
      py      :     1.079904
      dz2     :     0.007810  d :     0.133607
      dxz     :     0.012442
      dyz     :     0.022089
      dx2y2   :     0.042607
      dxy     :     0.048659
  2 N s       :     3.297807  s :     3.297807
      pz      :     1.331141  p :     3.942328
      px      :     1.082011
      py      :     1.529176
      dz2     :     0.006791  d :     0.047041
      dxz     :     0.005636
      dyz     :     0.003495
      dx2y2   :     0.008387
      dxy     :     0.022732
  3 C s       :     2.817801  s :     2.817801
      pz      :     0.878829  p :     2.876923
      px      :     1.013373
      py      :     0.984721
      dz2     :     0.016324  d :     0.312602
      dxz     :     0.044913
      dyz     :     0.038687
      dx2y2   :     0.118628
      dxy     :     0.094050
  4 N s       :     3.048292  s :     3.048292
      pz      :     1.534797  p :     3.874964
      px      :     1.161448
      py      :     1.178719
      dz2     :     0.005764  d :     0.060214
      dxz     :     0.003751
      dyz     :     0.006500
      dx2y2   :     0.020221
      dxy     :     0.023978
  5 C s       :     2.830773  s :     2.830773
      pz      :     0.857658  p :     2.867839
      px      :     0.992203
      py      :     1.017978
      dz2     :     0.015427  d :     0.271174
      dxz     :     0.023833
      dyz     :     0.050885
      dx2y2   :     0.063545
      dxy     :     0.117483
  6 O s       :     3.538587  s :     3.538587
      pz      :     1.500065  p :     4.726119
      px      :     1.566302
      py      :     1.659752
      dz2     :     0.004272  d :     0.029842
      dxz     :     0.004800
      dyz     :     0.002136
      dx2y2   :     0.006629
      dxy     :     0.012006
  7 O s       :     3.538971  s :     3.538971
      pz      :     1.491205  p :     4.732263
      px      :     1.782004
      py      :     1.459055
      dz2     :     0.004106  d :     0.029240
      dxz     :     0.000126
      dyz     :     0.006614
      dx2y2   :     0.012346
      dxy     :     0.006047
  8 H s       :     0.944238  s :     0.944238
      pz      :     0.012825  p :     0.064081
      px      :     0.030463
      py      :     0.020794
  9 H s       :     0.813027  s :     0.813027
      pz      :     0.036225  p :     0.122739
      px      :     0.052875
      py      :     0.033640
 10 H s       :     0.933293  s :     0.933293
      pz      :     0.021452  p :     0.071475
      px      :     0.032150
      py      :     0.017873


                      *****************************
                      * MAYER POPULATION ANALYSIS *
                      *****************************

  NA   - Mulliken gross atomic population
  ZA   - Total nuclear charge
  QA   - Mulliken gross atomic charge
  VA   - Mayer's total valence
  BVA  - Mayer's bonded valence
  FA   - Mayer's free valence

  ATOM       NA         ZA         QA         VA         BVA        FA
  0 C      6.1602     6.0000    -0.1602     3.7018     3.7018    -0.0000
  1 C      5.8932     6.0000     0.1068     3.9456     3.9456     0.0000
  2 N      7.3173     7.0000    -0.3173     2.8876     2.8876    -0.0000
  3 C      5.9952     6.0000     0.0048     4.5375     4.5375    -0.0000
  4 N      7.0151     7.0000    -0.0151     3.0904     3.0904    -0.0000
  5 C      5.9236     6.0000     0.0764     4.3849     4.3849     0.0000
  6 O      8.2888     8.0000    -0.2888     2.2101     2.2101    -0.0000
  7 O      8.3141     8.0000    -0.3141     2.2127     2.2127    -0.0000
  8 H      1.0751     1.0000    -0.0751     0.9710     0.9710     0.0000
  9 H      0.9229     1.0000     0.0771     1.0543     1.0543    -0.0000
 10 H      1.0945     1.0000    -0.0945     0.9947     0.9947    -0.0000

  Mayer bond orders larger than 0.100000
B(  0-C ,  1-C ) :   1.4742 B(  0-C ,  5-C ) :   1.1167 B(  0-C , 10-H ) :   0.9559 
B(  1-C ,  2-N ) :   1.4263 B(  1-C ,  8-H ) :   0.9563 B(  2-N ,  3-C ) :   1.2796 
B(  3-C ,  4-N ) :   1.0631 B(  3-C ,  6-O ) :   2.0726 B(  4-N ,  5-C ) :   1.1111 
B(  4-N ,  9-H ) :   0.8955 B(  5-C ,  7-O ) :   2.0440 

-------
TIMINGS
-------

Total SCF time: 0 days 0 hours 0 min 5 sec 

Total time                  ....       5.938 sec
Sum of individual times     ....       5.634 sec  ( 94.9%)

Fock matrix formation       ....       5.042 sec  ( 84.9%)
  XC integration            ....       0.293 sec  (  5.8% of F)
    Basis function eval.    ....       0.080 sec  ( 27.3% of XC)
    Density eval.           ....       0.054 sec  ( 18.3% of XC)
    XC-Functional eval.     ....       0.019 sec  (  6.4% of XC)
    XC-Potential eval.      ....       0.071 sec  ( 24.2% of XC)
Diagonalization             ....       0.024 sec  (  0.4%)
Density matrix formation    ....       0.009 sec  (  0.1%)
Population analysis         ....       0.004 sec  (  0.1%)
Initial guess               ....       0.148 sec  (  2.5%)
Orbital Transformation      ....       0.000 sec  (  0.0%)
Orbital Orthonormalization  ....       0.000 sec  (  0.0%)
DIIS solution               ....       0.008 sec  (  0.1%)
SOSCF solution              ....       0.020 sec  (  0.3%)
Grid generation             ....       0.380 sec  (  6.4%)

-------------------------   --------------------
FINAL SINGLE POINT ENERGY      -413.714866119861
-------------------------   --------------------



           ************************************************************
           *        Program running with 16 parallel MPI-processes    *
           *              working on a common directory               *
           ************************************************************
------------------------------------------------------------------------------
                         ORCA SCF GRADIENT CALCULATION
------------------------------------------------------------------------------

Gradient of the Kohn-Sham DFT energy:
Kohn-Sham wavefunction type      ... RKS
Hartree-Fock exchange scaling    ...    0.200
Number of operators              ...    1
Number of atoms                  ...   11
Basis set dimensions             ...  127
Integral neglect threshold       ... 2.5e-11
Integral primitive cutoff        ... 2.5e-12

Nuclear repulsion gradient       ... done
One Electron Gradient            ... done
Pre-screening matrix             ... done
Starting the two electron gradient:
Two electron gradient done
Exchange-correlation gradient    ... done

------------------
CARTESIAN GRADIENT
------------------

   1   C   :    0.002057238   -0.046522931    0.004347465
   2   C   :    0.077734185    0.037532442   -0.001483877
   3   N   :   -0.057627961   -0.021379494    0.001263968
   4   C   :   -0.053549020    0.090302747   -0.010055085
   5   N   :    0.015288077   -0.017786559    0.002055212
   6   C   :   -0.058341300    0.004190922   -0.002243017
   7   O   :    0.062085837   -0.015957575    0.003364349
   8   O   :    0.012318090   -0.031976117    0.003136630
   9   H   :   -0.000376459    0.010414357   -0.001079511
  10   H   :    0.003225117   -0.002503210    0.000337171
  11   H   :   -0.002813804   -0.006314582    0.000356695

Difference to translation invariance:
           :   -0.0000000000    0.0000000000   -0.0000000000

Norm of the cartesian gradient     ...    0.1844006365
RMS gradient                       ...    0.0321000306
MAX gradient                       ...    0.0903027466

-------
TIMINGS
-------

Total SCF gradient time            ...        0.868 sec

One electron gradient       ....       0.004 sec  (  0.5%)
Prescreening matrices       ....       0.010 sec  (  1.1%)
Two electron gradient       ....       0.420 sec  ( 48.4%)
XC gradient                 ....       0.199 sec  ( 22.9%)
------------------------------------------------------------------------------
                         ORCA GEOMETRY RELAXATION STEP
------------------------------------------------------------------------------

Reading the OPT-File                    .... done
Getting information on internals        .... done
Copying old internal coords+grads       .... done
Making the new internal coordinates     .... (new redundants).... done
Validating the new internal coordinates .... (new redundants).... done
Calculating the B-matrix                .... done
Calculating the G,G- and P matrices     .... done
Transforming gradient to internals      .... done
Projecting the internal gradient        .... done
Number of atoms                         ....  11
Number of internal coordinates          ....  47
Current Energy                          ....  -413.714866120 Eh
Current gradient norm                   ....     0.184400637 Eh/bohr
Maximum allowed component of the step   ....  0.300
Current trust radius                    ....  0.300
Evaluating the initial hessian          ....  (Almloef) done
Projecting the Hessian                  .... done
Forming the augmented Hessian           .... done
Diagonalizing the augmented Hessian     .... done
Last element of RFO vector              ....  0.968575900
Lowest eigenvalues of augmented Hessian:
 -0.036434990  0.020270164  0.022523546  0.027918669  0.028919538
Length of the computed step             ....  0.256787479
The final length of the internal step   ....  0.256787479
Converting the step to cartesian space:
 Initial RMS(Int)=    0.0374563035
Transforming coordinates:
 Iter   0:  RMS(Cart)=    0.0519880034 RMS(Int)=    0.0375360156
 Iter   1:  RMS(Cart)=    0.0023056328 RMS(Int)=    0.0018158894
 Iter   2:  RMS(Cart)=    0.0001752920 RMS(Int)=    0.0001195703
 Iter   3:  RMS(Cart)=    0.0000195407 RMS(Int)=    0.0000149547
 Iter   4:  RMS(Cart)=    0.0000016798 RMS(Int)=    0.0000012592
 Iter   5:  RMS(Cart)=    0.0000001768 RMS(Int)=    0.0000001255
 Iter   6:  RMS(Cart)=    0.0000000162 RMS(Int)=    0.0000000131
done
Storing new coordinates                 .... done

                                .--------------------.
          ----------------------|Geometry convergence|-------------------------
          Item                value                   Tolerance       Converged
          ---------------------------------------------------------------------
          RMS gradient        0.0214179893            0.0001000000      NO
          MAX gradient        0.0602126093            0.0003000000      NO
          RMS step            0.0374563035            0.0020000000      NO
          MAX step            0.1211702458            0.0040000000      NO
          ........................................................
          Max(Bonds)      0.0421      Max(Angles)    6.94
          Max(Dihed)        0.23      Max(Improp)    0.00
          ---------------------------------------------------------------------

The optimization has not yet converged - more geometry cycles are needed


    ---------------------------------------------------------------------------
                         Redundant Internal Coordinates
                            (Angstroem and degrees)

        Definition                    Value    dE/dq     Step     New-Value
    ----------------------------------------------------------------------------
     1. B(C   1,C   0)                1.3353 -0.053141  0.0349    1.3702   
     2. B(N   2,C   1)                1.4074  0.043806 -0.0421    1.3653   
     3. B(C   3,N   2)                1.4048  0.008152 -0.0082    1.3967   
     4. B(N   4,C   3)                1.3472 -0.049773  0.0383    1.3855   
     5. B(C   5,N   4)                1.3577 -0.031191  0.0255    1.3832   
     6. B(C   5,C   0)                1.4734  0.022533 -0.0234    1.4500   
     7. B(O   6,C   3)                1.2122 -0.043595  0.0208    1.2330   
     8. B(O   7,C   5)                1.2205 -0.031044  0.0152    1.2357   
     9. B(H   8,C   1)                1.0908 -0.006149  0.0082    1.0990   
    10. B(H   9,N   4)                1.0122 -0.004088  0.0046    1.0168   
    11. B(H  10,C   0)                1.0861 -0.005479  0.0072    1.0934   
    12. A(C   1,C   0,C   5)          121.43  0.009726   -1.23    120.20   
    13. A(C   1,C   0,H  10)          122.36 -0.009188    1.23    123.59   
    14. A(C   5,C   0,H  10)          116.21 -0.000539   -0.00    116.21   
    15. A(N   2,C   1,H   8)          120.58  0.025188   -3.41    117.17   
    16. A(C   0,C   1,N   2)          119.57 -0.032868    4.12    123.69   
    17. A(C   0,C   1,H   8)          119.85  0.007680   -0.71    119.15   
    18. A(C   1,N   2,C   3)          119.31  0.007515   -1.27    118.05   
    19. A(N   2,C   3,N   4)          120.19  0.012457   -1.62    118.57   
    20. A(N   4,C   3,O   6)          127.56  0.047755   -5.32    122.24   
    21. A(N   2,C   3,O   6)          112.25 -0.060213    6.94    119.19   
    22. A(C   5,N   4,H   9)          117.65  0.009408   -1.29    116.36   
    23. A(C   3,N   4,H   9)          119.14  0.008845   -1.20    117.94   
    24. A(C   3,N   4,C   5)          123.20 -0.018256    2.49    125.70   
    25. A(C   0,C   5,N   4)          116.29  0.021422   -2.50    113.79   
    26. A(N   4,C   5,O   7)          122.82  0.006385   -0.75    122.07   
    27. A(C   0,C   5,O   7)          120.89 -0.027807    3.25    124.14   
    28. D(N   2,C   1,C   0,C   5)     -0.13 -0.000136    0.06     -0.07   
    29. D(H   8,C   1,C   0,H  10)     -0.05 -0.000080    0.03     -0.02   
    30. D(N   2,C   1,C   0,H  10)    179.87 -0.000117    0.05    179.92   
    31. D(H   8,C   1,C   0,C   5)    179.95 -0.000100    0.04    179.99   
    32. D(C   3,N   2,C   1,H   8)   -179.40  0.000102   -0.19   -179.59   
    33. D(C   3,N   2,C   1,C   0)      0.69  0.000154   -0.22      0.47   
    34. D(N   4,C   3,N   2,C   1)     -0.43 -0.000235    0.23     -0.20   
    35. D(O   6,C   3,N   2,C   1)    179.71 -0.000120    0.05    179.77   
    36. D(H   9,N   4,C   3,O   6)      0.30 -0.000070    0.03      0.33   
    37. D(H   9,N   4,C   3,N   2)   -179.52  0.000250   -0.20   -179.72   
    38. D(C   5,N   4,C   3,O   6)    179.40 -0.000241    0.17    179.57   
    39. D(C   5,N   4,C   3,N   2)     -0.43  0.000079   -0.06     -0.49   
    40. D(O   7,C   5,C   0,C   1)    179.29 -0.000219    0.21    179.50   
    41. D(N   4,C   5,C   0,H  10)    179.33 -0.000163    0.13    179.46   
    42. D(N   4,C   5,C   0,C   1)     -0.67 -0.000144    0.12     -0.55   
    43. D(O   7,C   5,N   4,H   9)      0.10  0.000049   -0.07      0.03   
    44. D(O   7,C   5,N   4,C   3)   -179.01  0.000217   -0.21   -179.22   
    45. D(C   0,C   5,N   4,H   9)   -179.94 -0.000040    0.03   -179.91   
    46. D(C   0,C   5,N   4,C   3)      0.96  0.000128   -0.11      0.85   
    47. D(O   7,C   5,C   0,H  10)     -0.71 -0.000237    0.22     -0.49   
    ----------------------------------------------------------------------------

         *************************************************************
         *                GEOMETRY OPTIMIZATION CYCLE   2            *
         *************************************************************
---------------------------------
CARTESIAN COORDINATES (ANGSTROEM)
---------------------------------
  C      1.345344    0.547286   -0.019218
  C      1.209285   -0.811867    0.091530
  N      0.004266   -1.453192    0.117406
  C     -1.153464   -0.678897    0.015743
  N     -1.022425    0.695229   -0.101462
  C      0.171631    1.393055   -0.118729
  O     -2.253258   -1.236015    0.032085
  O      0.210385    2.624567   -0.212277
  H      2.111096   -1.435575    0.165603
  H     -1.871277    1.250728   -0.170555
  H      2.311606    1.058562   -0.038476

----------------------------
CARTESIAN COORDINATES (A.U.)
----------------------------
  NO LB      ZA    FRAG     MASS         X           Y           Z
   0 C     6.0000    0    12.011    2.542332    1.034220   -0.036316
   1 C     6.0000    0    12.011    2.285217   -1.534207    0.172966
   2 N     7.0000    0    14.007    0.008062   -2.746134    0.221866
   3 C     6.0000    0    12.011   -2.179731   -1.282929    0.029750
   4 N     7.0000    0    14.007   -1.932103    1.313793   -0.191736
   5 C     6.0000    0    12.011    0.324337    2.632492   -0.224365
   6 O     8.0000    0    15.999   -4.258041   -2.335731    0.060632
   7 O     8.0000    0    15.999    0.397571    4.959712   -0.401146
   8 H     1.0000    0     1.008    3.989394   -2.712844    0.312944
   9 H     1.0000    0     1.008   -3.536201    2.363532   -0.322302
  10 H     1.0000    0     1.008    4.368302    2.000393   -0.072709

--------------------------------
INTERNAL COORDINATES (ANGSTROEM)
--------------------------------
 C      0   0   0     0.000000000000     0.00000000     0.00000000
 C      1   0   0     1.370428162893     0.00000000     0.00000000
 N      2   1   0     1.365296884204   123.71254418     0.00000000
 C      3   2   1     1.396498231790   118.02622898     0.46342787
 N      4   3   2     1.385327301718   118.53612256   359.79840422
 C      5   4   3     1.383122838304   125.67353610   359.51033035
 O      4   3   2     1.232962246352   119.20835139   179.75042377
 O      6   5   4     1.235668088417   122.06307123   180.78654244
 H      2   1   3     1.098982542405   119.13308713   180.05676875
 H      5   4   3     1.016809394818   117.94868359   180.27766364
 H      1   2   3     1.093360581124   123.56871772   179.92219082

---------------------------
INTERNAL COORDINATES (A.U.)
---------------------------
 C      0   0   0     0.000000000000     0.00000000     0.00000000
 C      1   0   0     2.589733914080     0.00000000     0.00000000
 N      2   1   0     2.580037202642   123.71254418     0.00000000
 C      3   2   1     2.638999204589   118.02622898     0.46342787
 N      4   3   2     2.617889206092   118.53612256   359.79840422
 C      5   4   3     2.613723373967   125.67353610   359.51033035
 O      4   3   2     2.329960979070   119.20835139   179.75042377
 O      6   5   4     2.335074279534   122.06307123   180.78654244
 H      2   1   3     2.076776031106   119.13308713   180.05676875
 H      5   4   3     1.921491286605   117.94868359   180.27766364
 H      1   2   3     2.066152063950   123.56871772   179.92219082



           ************************************************************
           *        Program running with 16 parallel MPI-processes    *
           *              working on a common directory               *
           ************************************************************


           ************************************************************
           *        Program running with 16 parallel MPI-processes    *
           *              working on a common directory               *
           ************************************************************

Diagonalization of the overlap matrix:
Smallest eigenvalue                        ... 1.326e-03
Time for diagonalization                   ...    0.003 sec
Threshold for overlap eigenvalues          ... 1.000e-08
Number of eigenvalues below threshold      ... 0
Time for construction of square roots      ...    0.002 sec
Total time needed                          ...    0.006 sec

-------------------
DFT GRID GENERATION
-------------------

General Integration Accuracy     IntAcc      ...  4.340
Radial Grid Type                 RadialGrid  ... Gauss-Chebyshev
Angular Grid (max. acc.)         AngularGrid ... Lebedev-110
Angular grid pruning method      GridPruning ... 3 (G Style)
Weight generation scheme         WeightScheme... Becke
Basis function cutoff            BFCut       ...    1.0000e-11
Integration weight cutoff        WCut        ...    1.0000e-14
Grids for H and He will be reduced by one unit

# of grid points (after initial pruning)     ...  15842 (   0.0 sec)
# of grid points (after weights+screening)   ...  14951 (   0.0 sec)
nearest neighbour list constructed           ...    0.0 sec
Grid point re-assignment to atoms done       ...    0.0 sec
Grid point division into batches done        ...    0.0 sec
Reduced shell lists constructed in    0.0 sec

Total number of grid points                  ...    14951
Total number of batches                      ...      239
Average number of points per batch           ...       62
Average number of grid points per atom       ...     1359
Average number of shells per batch           ...    45.44 (79.71%)
Average number of basis functions per batch  ...   105.56 (83.12%)
Average number of large shells per batch     ...    39.88 (87.76%)
Average number of large basis fcns per batch ...    89.25 (84.55%)
Maximum spatial batch extension              ...   3.93,  4.40, 19.19 au
Average spatial batch extension              ...   0.13,  0.12,  0.26 au

Time for grid setup =    0.047 sec

--------------
SCF ITERATIONS
--------------
ITER       Energy         Delta-E        Max-DP      RMS-DP      [F,P]     Damp
               ***  Starting incremental Fock matrix formation  ***
  0   -413.7285520663   0.000000000000 0.01083316  0.00050226  0.0400849 0.7000
                      *** Initiating the SOSCF procedure ***
                      *** Re-Reading the Fockian *** 
                      *** Removing any level shift *** 
ITER      Energy       Delta-E        Grad      Rot      Max-DP    RMS-DP
  1   -413.73167083  -0.0031187624  0.003244  0.003244  0.029122  0.001496
               *** Restarting incremental Fock matrix formation ***
  2   -413.73926934  -0.0075985135  0.002438  0.007827  0.016429  0.000507
  3   -413.73895566   0.0003136838  0.005301  0.004916  0.010505  0.000323
  4   -413.73960264  -0.0006469822  0.000850  0.003848  0.003162  0.000127
  5   -413.73958560   0.0000170387  0.001108  0.002065  0.002047  0.000076
  6   -413.73961588  -0.0000302768  0.000104  0.000332  0.000426  0.000018
  7   -413.73961573   0.0000001478  0.000121  0.000195  0.000292  0.000010
  8   -413.73961623  -0.0000004985  0.000028  0.000074  0.000159  0.000006
  9   -413.73961620   0.0000000291  0.000042  0.000054  0.000086  0.000003
 10   -413.73961626  -0.0000000549  0.000007  0.000020  0.000037  0.000001
 11   -413.73961625   0.0000000014  0.000010  0.000015  0.000019  0.000001
 12   -413.73961626  -0.0000000032  0.000003  0.000007  0.000012  0.000000
 13   -413.73961626   0.0000000003  0.000004  0.000004  0.000008  0.000000
                  ***Gradient check signals convergence***
              ***Rediagonalizing the Fockian in SOSCF/NRSCF***

               *****************************************************
               *                     SUCCESS                       *
               *           SCF CONVERGED AFTER  14 CYCLES          *
               *****************************************************

Setting up the final grid:

General Integration Accuracy     IntAcc      ...  4.670
Radial Grid Type                 RadialGrid  ... Gauss-Chebyshev
Angular Grid (max. acc.)         AngularGrid ... Lebedev-302
Angular grid pruning method      GridPruning ... 3 (G Style)
Weight generation scheme         WeightScheme... Becke
Basis function cutoff            BFCut       ...    1.0000e-11
Integration weight cutoff        WCut        ...    1.0000e-14
Grids for H and He will be reduced by one unit

# of grid points (after initial pruning)     ...  59878 (   0.0 sec)
# of grid points (after weights+screening)   ...  55924 (   0.0 sec)
nearest neighbour list constructed           ...    0.0 sec
Grid point re-assignment to atoms done       ...    0.0 sec
Grid point division into batches done        ...    0.3 sec
Reduced shell lists constructed in    0.3 sec

Total number of grid points                  ...    55924
Total number of batches                      ...      879
Average number of points per batch           ...       63
Average number of grid points per atom       ...     5084
Average number of shells per batch           ...    45.68 (80.14%)
Average number of basis functions per batch  ...   104.75 (82.48%)
Average number of large shells per batch     ...    38.09 (83.39%)
Average number of large basis fcns per batch ...    84.45 (80.62%)
Maximum spatial batch extension              ...   3.67,  3.78, 16.94 au
Average spatial batch extension              ...   0.09,  0.09,  0.12 au

Final grid set up in    0.4 sec
Final integration                            ... done (   0.1 sec)
Change in XC energy                          ...    -0.000414408
Integrated number of electrons               ...    57.999971845
Previous integrated no of electrons          ...    57.998024121
Total Energy       :         -413.74003066 Eh          -11258.43860 eV
  Last Energy change         ...   -6.3272e-10  Tolerance :   1.0000e-08
  Last MAX-Density change    ...    1.5103e-06  Tolerance :   1.0000e-07
             **** THE GBW FILE WAS UPDATED (Uracil_m1.gbw) ****
             **** DENSITY FILE WAS UPDATED (Uracil_m1.scfp) ****
             **** ENERGY FILE WAS UPDATED (Uracil_m1.en.tmp) ****
             **** THE GBW FILE WAS UPDATED (Uracil_m1.gbw) ****
             **** DENSITY FILE WAS UPDATED (Uracil_m1.scfp) ****
Total SCF time: 0 days 0 hours 0 min 5 sec 

-------------------------   --------------------
FINAL SINGLE POINT ENERGY      -413.740030664904
-------------------------   --------------------



           ************************************************************
           *        Program running with 16 parallel MPI-processes    *
           *              working on a common directory               *
           ************************************************************
------------------------------------------------------------------------------
                         ORCA SCF GRADIENT CALCULATION
------------------------------------------------------------------------------

Gradient of the Kohn-Sham DFT energy:
Kohn-Sham wavefunction type      ... RKS
Hartree-Fock exchange scaling    ...    0.200
Number of operators              ...    1
Number of atoms                  ...   11
Basis set dimensions             ...  127
Integral neglect threshold       ... 2.5e-11
Integral primitive cutoff        ... 2.5e-12

Nuclear repulsion gradient       ... done
One Electron Gradient            ... done
Pre-screening matrix             ... done
Starting the two electron gradient:
Two electron gradient done
Exchange-correlation gradient    ... done

------------------
CARTESIAN GRADIENT
------------------

   1   C   :   -0.002694491   -0.016488405    0.001454377
   2   C   :    0.037754225    0.011230599   -0.000107654
   3   N   :   -0.017409829   -0.016974598    0.001467125
   4   C   :   -0.016276059    0.048204620   -0.004638593
   5   N   :    0.005255837   -0.007008351    0.000456883
   6   C   :   -0.026511926   -0.004219461   -0.000395060
   7   O   :    0.010065494   -0.015501154    0.001586442
   8   O   :    0.009178985   -0.004916534    0.000852017
   9   H   :    0.000136757    0.003753793   -0.000443580
  10   H   :    0.000276228    0.001346299   -0.000075280
  11   H   :    0.000224780    0.000573193   -0.000156679

Difference to translation invariance:
           :    0.0000000000   -0.0000000000    0.0000000000

Norm of the cartesian gradient     ...    0.0793972984
RMS gradient                       ...    0.0138212956
MAX gradient                       ...    0.0482046198

-------
TIMINGS
-------

Total SCF gradient time            ...        0.939 sec

One electron gradient       ....       0.017 sec  (  1.9%)
Prescreening matrices       ....       0.015 sec  (  1.5%)
Two electron gradient       ....       0.423 sec  ( 45.1%)
XC gradient                 ....       0.192 sec  ( 20.4%)
------------------------------------------------------------------------------
                         ORCA GEOMETRY RELAXATION STEP
------------------------------------------------------------------------------

Reading the OPT-File                    .... done
Getting information on internals        .... done
Copying old internal coords+grads       .... done
Making the new internal coordinates     .... (new redundants).... done
Validating the new internal coordinates .... (new redundants).... done
Calculating the B-matrix                .... done
Calculating the G,G- and P matrices     .... done
Transforming gradient to internals      .... done
Projecting the internal gradient        .... done
Number of atoms                         ....  11
Number of internal coordinates          ....  47
Current Energy                          ....  -413.740030665 Eh
Current gradient norm                   ....     0.079397298 Eh/bohr
Maximum allowed component of the step   ....  0.300
Current trust radius                    ....  0.300
Updating the Hessian (BFGS)             .... done
Forming the augmented Hessian           .... done
Diagonalizing the augmented Hessian     .... done
Last element of RFO vector              ....  0.982021021
Lowest eigenvalues of augmented Hessian:
 -0.011013374  0.020270772  0.022523840  0.027919127  0.028919590
Length of the computed step             ....  0.192227651
The final length of the internal step   ....  0.192227651
Converting the step to cartesian space:
 Initial RMS(Int)=    0.0280392846
Transforming coordinates:
 Iter   0:  RMS(Cart)=    0.0395558969 RMS(Int)=    1.5869357723
 Iter   1:  RMS(Cart)=    0.0012582238 RMS(Int)=    0.0009586328
 Iter   2:  RMS(Cart)=    0.0000633308 RMS(Int)=    0.0000365200
 Iter   3:  RMS(Cart)=    0.0000046069 RMS(Int)=    0.0000038300
 Iter   4:  RMS(Cart)=    0.0000002676 RMS(Int)=    0.0000001605
 Iter   5:  RMS(Cart)=    0.0000000197 RMS(Int)=    0.0000000162
done
Storing new coordinates                 .... done

                                .--------------------.
          ----------------------|Geometry convergence|-------------------------
          Item                value                   Tolerance       Converged
          ---------------------------------------------------------------------
          Energy change      -0.0251645450            0.0000050000      NO
          RMS gradient        0.0084798315            0.0001000000      NO
          MAX gradient        0.0239822572            0.0003000000      NO
          RMS step            0.0280392846            0.0020000000      NO
          MAX step            0.0833395379            0.0040000000      NO
          ........................................................
          Max(Bonds)      0.0362      Max(Angles)    4.78
          Max(Dihed)        0.33      Max(Improp)    0.00
          ---------------------------------------------------------------------

The optimization has not yet converged - more geometry cycles are needed


    ---------------------------------------------------------------------------
                         Redundant Internal Coordinates
                            (Angstroem and degrees)

        Definition                    Value    dE/dq     Step     New-Value
    ----------------------------------------------------------------------------
     1. B(C   1,C   0)                1.3704 -0.016187  0.0187    1.3892   
     2. B(N   2,C   1)                1.3653  0.021804 -0.0362    1.3291   
     3. B(C   3,N   2)                1.3965  0.015529 -0.0251    1.3714   
     4. B(N   4,C   3)                1.3853 -0.015865  0.0215    1.4069   
     5. B(C   5,N   4)                1.3831 -0.010805  0.0156    1.3988   
     6. B(C   5,C   0)                1.4501  0.009302 -0.0166    1.4335   
     7. B(O   6,C   3)                1.2330 -0.001954  0.0023    1.2353   
     8. B(O   7,C   5)                1.2357 -0.004676  0.0044    1.2400   
     9. B(H   8,C   1)                1.0990 -0.002047  0.0047    1.1037   
    10. B(H   9,N   4)                1.0168  0.000509 -0.0010    1.0159   
    11. B(H  10,C   0)                1.0934  0.000471 -0.0011    1.0923   
    12. A(C   1,C   0,C   5)          120.24  0.006664   -1.49    118.76   
    13. A(C   1,C   0,H  10)          123.57 -0.002895    0.60    124.17   
    14. A(C   5,C   0,H  10)          116.19 -0.003769    0.89    117.08   
    15. A(N   2,C   1,H   8)          117.15  0.011316   -2.61    114.55   
    16. A(C   0,C   1,N   2)          123.71 -0.016010    3.44    127.15   
    17. A(C   0,C   1,H   8)          119.13  0.004694   -0.83    118.31   
    18. A(C   1,N   2,C   3)          118.03  0.002468   -0.79    117.23   
    19. A(N   2,C   3,N   4)          118.54  0.004955   -1.10    117.44   
    20. A(N   4,C   3,O   6)          122.26  0.019027   -3.68    118.58   
    21. A(N   2,C   3,O   6)          119.21 -0.023982    4.78    123.98   
    22. A(C   5,N   4,H   9)          116.37  0.002692   -0.64    115.73   
    23. A(C   3,N   4,H   9)          117.95  0.005127   -1.24    116.70   
    24. A(C   3,N   4,C   5)          125.67 -0.007821    1.89    127.56   
    25. A(C   0,C   5,N   4)          113.81  0.009741   -1.94    111.86   
    26. A(N   4,C   5,O   7)          122.06  0.006022   -1.21    120.85   
    27. A(C   0,C   5,O   7)          124.13 -0.015763    3.15    127.29   
    28. D(N   2,C   1,C   0,C   5)     -0.07 -0.000070    0.04     -0.03   
    29. D(H   8,C   1,C   0,H  10)     -0.02 -0.000035    0.02     -0.00   
    30. D(N   2,C   1,C   0,H  10)    179.92 -0.000047   -0.02    179.91   
    31. D(H   8,C   1,C   0,C   5)    179.99 -0.000058    0.07    180.06   
    32. D(C   3,N   2,C   1,H   8)   -179.59  0.000113   -0.29   -179.88   
    33. D(C   3,N   2,C   1,C   0)      0.46  0.000128   -0.25      0.21   
    34. D(N   4,C   3,N   2,C   1)     -0.20 -0.000104    0.19     -0.01   
    35. D(O   6,C   3,N   2,C   1)    179.75 -0.000093    0.28    180.03   
    36. D(H   9,N   4,C   3,O   6)      0.33  0.000084   -0.18      0.15   
    37. D(H   9,N   4,C   3,N   2)   -179.72  0.000073   -0.07   -179.80   
    38. D(C   5,N   4,C   3,O   6)    179.56 -0.000030    0.01    179.57   
    39. D(C   5,N   4,C   3,N   2)     -0.49 -0.000041    0.11     -0.37   
    40. D(O   7,C   5,C   0,C   1)    179.51 -0.000108    0.15    179.65   
    41. D(N   4,C   5,C   0,H  10)    179.46 -0.000163    0.32    179.78   
    42. D(N   4,C   5,C   0,C   1)     -0.55 -0.000142    0.27     -0.29   
    43. D(O   7,C   5,N   4,H   9)      0.03  0.000020   -0.03     -0.00   
    44. D(O   7,C   5,N   4,C   3)   -179.21  0.000115   -0.21   -179.42   
    45. D(C   0,C   5,N   4,H   9)   -179.91  0.000067   -0.15   -180.07   
    46. D(C   0,C   5,N   4,C   3)      0.84  0.000161   -0.33      0.51   
    47. D(O   7,C   5,C   0,H  10)     -0.49 -0.000130    0.20     -0.29   
    ----------------------------------------------------------------------------

         *************************************************************
         *                GEOMETRY OPTIMIZATION CYCLE   3            *
         *************************************************************
---------------------------------
CARTESIAN COORDINATES (ANGSTROEM)
---------------------------------
  C      1.351450    0.570047   -0.020767
  C      1.170945   -0.803313    0.088880
  N      0.017067   -1.462500    0.114329
  C     -1.131368   -0.719625    0.018908
  N     -0.991634    0.675113   -0.097415
  C      0.196187    1.413198   -0.121202
  O     -2.268856   -1.201220    0.030267
  O      0.174723    2.649212   -0.218620
  H      2.066334   -1.443910    0.166624
  H     -1.848841    1.216115   -0.164255
  H      2.327184    1.060763   -0.035100

----------------------------
CARTESIAN COORDINATES (A.U.)
----------------------------
  NO LB      ZA    FRAG     MASS         X           Y           Z
   0 C     6.0000    0    12.011    2.553870    1.077232   -0.039243
   1 C     6.0000    0    12.011    2.212765   -1.518041    0.167960
   2 N     7.0000    0    14.007    0.032253   -2.763725    0.216051
   3 C     6.0000    0    12.011   -2.137976   -1.359893    0.035731
   4 N     7.0000    0    14.007   -1.873917    1.275779   -0.184087
   5 C     6.0000    0    12.011    0.370740    2.670558   -0.229038
   6 O     8.0000    0    15.999   -4.287517   -2.269977    0.057195
   7 O     8.0000    0    15.999    0.330178    5.006284   -0.413132
   8 H     1.0000    0     1.008    3.904805   -2.728594    0.314873
   9 H     1.0000    0     1.008   -3.493803    2.298125   -0.310396
  10 H     1.0000    0     1.008    4.397740    2.004551   -0.066330

--------------------------------
INTERNAL COORDINATES (ANGSTROEM)
--------------------------------
 C      0   0   0     0.000000000000     0.00000000     0.00000000
 C      1   0   0     1.389503799624     0.00000000     0.00000000
 N      2   1   0     1.329138401944   127.19113460     0.00000000
 C      3   2   1     1.371084941976   117.20120168     0.20489614
 N      4   3   2     1.406538171820   117.37499809     0.00000000
 C      5   4   3     1.398661626336   127.52138883   359.62506459
 O      4   3   2     1.235290261784   124.01567578   180.04409984
 O      6   5   4     1.240032323365   120.83943028   180.56762818
 H      2   1   3     1.103689419181   118.28387689   180.09700449
 H      5   4   3     1.015851299230   116.72459290   180.20261358
 H      1   2   3     1.092274773062   124.13340562   179.89660462

---------------------------
INTERNAL COORDINATES (A.U.)
---------------------------
 C      0   0   0     0.000000000000     0.00000000     0.00000000
 C      1   0   0     2.625781643333     0.00000000     0.00000000
 N      2   1   0     2.511707573751   127.19113460     0.00000000
 C      3   2   1     2.590975046678   117.20120168     0.20489614
 N      4   3   2     2.657971941645   117.37499809     0.00000000
 C      5   4   3     2.643087427801   127.52138883   359.62506459
 O      4   3   2     2.334360290672   124.01567578   180.04409984
 O      6   5   4     2.343321488370   120.83943028   180.56762818
 H      2   1   3     2.085670739158   118.28387689   180.09700449
 H      5   4   3     1.919680748333   116.72459290   180.20261358
 H      1   2   3     2.064100184078   124.13340562   179.89660462



           ************************************************************
           *        Program running with 16 parallel MPI-processes    *
           *              working on a common directory               *
           ************************************************************


           ************************************************************
           *        Program running with 16 parallel MPI-processes    *
           *              working on a common directory               *
           ************************************************************

Diagonalization of the overlap matrix:
Smallest eigenvalue                        ... 1.303e-03
Time for diagonalization                   ...    0.004 sec
Threshold for overlap eigenvalues          ... 1.000e-08
Number of eigenvalues below threshold      ... 0
Time for construction of square roots      ...    0.002 sec
Total time needed                          ...    0.006 sec

-------------------
DFT GRID GENERATION
-------------------

General Integration Accuracy     IntAcc      ...  4.340
Radial Grid Type                 RadialGrid  ... Gauss-Chebyshev
Angular Grid (max. acc.)         AngularGrid ... Lebedev-110
Angular grid pruning method      GridPruning ... 3 (G Style)
Weight generation scheme         WeightScheme... Becke
Basis function cutoff            BFCut       ...    1.0000e-11
Integration weight cutoff        WCut        ...    1.0000e-14
Grids for H and He will be reduced by one unit

# of grid points (after initial pruning)     ...  15842 (   0.0 sec)
# of grid points (after weights+screening)   ...  14956 (   0.0 sec)
[...]
     17       0.040631  -0.092183   0.008302  -0.115602   0.025397   0.008677
     18       0.010193   0.003714  -0.080795  -0.001490  -0.110769   0.038681
     19      -0.031675  -0.011754   0.510961   0.004932  -0.135149   0.274960
     20      -0.380623  -0.142784  -0.044700   0.059105   0.008488  -0.021641
     21       0.006126  -0.009088  -0.573957  -0.001173  -0.106350   0.143728
     22      -0.018288   0.027563  -0.090955   0.003716  -0.314558  -0.212446
     23      -0.220377   0.333564  -0.008294   0.042248   0.023132   0.021551
     24       0.001130  -0.005368   0.061089  -0.021810  -0.050344   0.256852
     25      -0.003248   0.016211  -0.100109   0.065893  -0.163850   0.093306
     26      -0.039522   0.196757   0.009655   0.795865   0.013632  -0.000246
     27      -0.012873   0.001562   0.301378  -0.012351   0.196380  -0.352316
     28       0.039062  -0.005488  -0.128935   0.035971   0.438163  -0.204424
     29       0.470621  -0.063976   0.020861   0.434346  -0.030646   0.006541
     30       0.012111   0.016647   0.217416  -0.004795   0.247763  -0.386111
     31      -0.036009  -0.050046  -0.169576   0.014102   0.215980   0.428550
     32      -0.437028  -0.608290   0.019825   0.173752  -0.010223  -0.045938
                 12         13         14         15         16         17    
      0       0.082423   0.002053  -0.000532  -0.003556   0.159590   0.007446
      1       0.265615  -0.005398   0.001336   0.013986  -0.145901  -0.020240
      2      -0.019487  -0.067098   0.015446   0.184234   0.015261  -0.226965
      3       0.004688  -0.000601  -0.002612   0.001655   0.450853  -0.000176
      4       0.302061   0.002100   0.007593   0.003349  -0.284717   0.010974
      5      -0.024837   0.023997   0.090616   0.066917   0.033528   0.169667
      6       0.081849   0.001196   0.000860   0.004171   0.174529   0.009262
      7      -0.063697  -0.003579  -0.002809  -0.008725  -0.011885  -0.023078
      8       0.007240  -0.040481  -0.033321  -0.105448   0.009603  -0.280893
      9      -0.124365  -0.000675   0.002727  -0.007501  -0.143363  -0.019273
     10      -0.322633   0.001507  -0.008237   0.018756  -0.112805   0.054166
     11       0.023565   0.021620  -0.099519   0.236004  -0.003744   0.659644
     12       0.113522  -0.001959   0.000638  -0.002449  -0.196285   0.005759
     13      -0.276638   0.005656  -0.001579   0.003180   0.115730  -0.021749
     14       0.025622   0.068019  -0.019030   0.027986  -0.013653  -0.276437
     15       0.019392  -0.000490  -0.003699   0.009955  -0.028698  -0.010693
     16       0.005667   0.001831   0.011176  -0.029206   0.159976   0.032333
     17       0.000085   0.021187   0.135623  -0.367806  -0.010348   0.372923
     18      -0.357533  -0.000580  -0.000868  -0.000501  -0.278596   0.002213
     19       0.082388   0.001059   0.002889  -0.005367  -0.032063  -0.014973
     20      -0.016578   0.011628   0.034754  -0.061541  -0.002472  -0.173468
     21       0.188447  -0.000337   0.000752  -0.003614  -0.048143   0.002458
     22       0.002191   0.000981  -0.002323   0.011499   0.247368  -0.006157
     23       0.004872   0.011163  -0.027020   0.115411  -0.023041  -0.101999
     24       0.080493  -0.002787   0.000318   0.008083   0.374702   0.002052
     25       0.415726   0.008907  -0.001017  -0.019437  -0.410393  -0.000041
     26      -0.032571   0.105449  -0.014271  -0.194129   0.047277   0.054840
     27       0.057916   0.027783   0.003248   0.003410  -0.218562  -0.012932
     28      -0.362281  -0.081281  -0.008465  -0.016084   0.105488   0.031346
     29       0.035544  -0.975680  -0.104903  -0.195356  -0.012445   0.365054
     30       0.043330  -0.003261   0.026494   0.023316   0.108562  -0.001549
     31       0.345965   0.010660  -0.079925  -0.066802   0.013604   0.006717
     32      -0.027477   0.129319  -0.970131  -0.811268   0.012951   0.075917
                 18         19         20         21         22         23    
      0      -0.126482   0.003112  -0.250569  -0.065520  -0.147124  -0.056788
      1      -0.122519  -0.004710  -0.031247  -0.087486   0.069920   0.022022
      2       0.006737  -0.058202  -0.004977   0.005423  -0.009762  -0.003332
      3       0.039456  -0.005142   0.084889  -0.026920  -0.006293  -0.106794
      4      -0.103317   0.014128  -0.031712   0.079940  -0.076013  -0.017809
      5       0.009202   0.169695   0.007068  -0.007257   0.006084  -0.001483
      6      -0.062435   0.000036   0.047219   0.095289   0.157745   0.150693
      7       0.361082  -0.000999   0.031432   0.056535  -0.101268   0.044769
      8      -0.031647  -0.012901  -0.001517  -0.002110   0.012746   0.000391
      9       0.048318   0.001637  -0.056544   0.008063  -0.149774   0.013073
     10      -0.008158  -0.003784   0.001813  -0.047219   0.384370  -0.090913
     11       0.001886  -0.045431  -0.002174   0.004177  -0.036069   0.007963
     12       0.121149  -0.001559   0.212689  -0.028507  -0.114216  -0.110979
     13      -0.274763   0.000117   0.076429   0.029088  -0.207846  -0.056609
     14       0.026346   0.010036  -0.000246  -0.003240   0.014120   0.001591
     15      -0.056833   0.000448   0.013141   0.016648   0.306736   0.118812
     16       0.056498  -0.001496  -0.035323   0.001256   0.034197  -0.006813
     17      -0.006106  -0.021416   0.002705   0.000364   0.005601   0.003823
     18       0.015286   0.000231  -0.074461  -0.028146  -0.034439   0.020300
     19       0.017241   0.001173  -0.056066   0.009107  -0.032908   0.048008
     20      -0.000977   0.009485   0.002740  -0.001531   0.001812  -0.003442
     21       0.029109  -0.000015  -0.013821  -0.008155  -0.005316  -0.006561
     22       0.116651   0.000680  -0.027781  -0.018701  -0.007232   0.029131
     23      -0.008873   0.004382   0.002043   0.001325   0.000460  -0.002597
     24      -0.121904   0.024492   0.206998   0.160031   0.373512  -0.505982
     25      -0.332878  -0.080500   0.143299   0.342062   0.433421  -0.573249
     26       0.027192  -0.953881  -0.018098  -0.024112  -0.025791   0.033901
     27      -0.148123  -0.003988   0.493470   0.019404  -0.257002   0.228292
     28      -0.719732  -0.001829   0.525747   0.109616  -0.439935   0.499035
     29       0.053842   0.025422  -0.030163  -0.008360   0.028866  -0.034890
     30      -0.112031  -0.003404  -0.419524   0.275801  -0.132618  -0.114547
     31      -0.157022   0.015869   0.312462  -0.851607   0.024101   0.128652
     32       0.009325   0.216188  -0.034410   0.077837  -0.005578  -0.013774
                 24         25         26         27         28         29    
      0       0.016172  -0.052934   0.215538   0.095428   0.051058  -0.054417
      1       0.122078   0.099195  -0.365350   0.246276  -0.118850   0.147099
      2      -0.009624  -0.009609   0.036036  -0.017709   0.011173  -0.013604
      3       0.073981   0.024235  -0.247288  -0.294072  -0.016035  -0.008587
      4      -0.035924   0.013407   0.154204  -0.421150   0.024570  -0.024101
      5       0.004968  -0.000483  -0.019530   0.026827  -0.002464   0.001737
      6      -0.026039   0.081778   0.302101   0.173162  -0.036149  -0.117732
      7      -0.056313  -0.034754  -0.043911   0.134055  -0.004105  -0.001018
      8       0.003961   0.005118   0.011907  -0.006406  -0.000631  -0.003120
      9      -0.061576  -0.002766  -0.056085   0.030351   0.360307   0.645618
     10       0.118187   0.071197   0.240694  -0.056391   0.135001   0.157369
     11      -0.011433  -0.006036  -0.021526   0.005487  -0.001452   0.004421
     12       0.005301   0.090225   0.112798   0.056710  -0.067786  -0.080716
     13      -0.154816   0.089595  -0.025659   0.072329  -0.125492   0.025954
     14       0.013034  -0.004913   0.005301  -0.004405   0.008535  -0.004390
     15      -0.184339  -0.047396  -0.278346  -0.129934  -0.060941   0.113328
     16      -0.029822   0.024682  -0.120801   0.025465   0.490036  -0.487777
     17      -0.002688  -0.003377   0.002418  -0.005738  -0.042255   0.043515
     18       0.041968  -0.063295  -0.080156  -0.043332  -0.191307  -0.336216
     19       0.004716  -0.042958  -0.058322  -0.003161  -0.076314  -0.134647
     20       0.000737   0.001861   0.002660  -0.000906   0.001164   0.002119
     21       0.045260   0.004628   0.018585   0.023655   0.016915  -0.017285
     22       0.050634  -0.074912   0.152890  -0.059183  -0.257763   0.270050
     23      -0.002932   0.006335  -0.012170   0.005561   0.021852  -0.022873
     24      -0.002442  -0.438045  -0.297655   0.470698  -0.033793   0.003673
     25      -0.157822  -0.631752   0.100139   0.550020   0.023902   0.042611
     26       0.012959   0.040424  -0.016062  -0.032745  -0.002921  -0.003397
     27       0.469993  -0.220476   0.083351  -0.018153   0.336606   0.005502
     28       0.589839  -0.416535  -0.076954  -0.049128   0.535408   0.117206
     29      -0.036072   0.028333   0.008377   0.003576  -0.035058  -0.009673
     30       0.292156   0.139242  -0.210527   0.219057  -0.075072   0.066577
     31      -0.456219  -0.327112   0.529900   0.072999   0.219696  -0.184009
     32       0.045531   0.030726  -0.049478  -0.000148  -0.020139   0.017054
                  30         31         32    
      0       0.004181  -0.079175   0.000517
      1      -0.000501  -0.037123  -0.000644
      2       0.000155   0.000892   0.000067
      3      -0.066367  -0.004349   0.000331
      4       0.053174   0.008025  -0.000174
      5      -0.006219  -0.000784   0.000024
      6      -0.001814   0.000588   0.000704
      7      -0.001492  -0.000047  -0.000138
      8       0.000074   0.000019   0.000031
      9       0.002682   0.000383  -0.001350
     10      -0.000093   0.000397  -0.001147
     11       0.000080  -0.000022   0.000060
     12      -0.000150   0.000345  -0.061954
     13       0.000098   0.000375   0.037831
     14      -0.000012  -0.000021  -0.004922
     15       0.000921   0.002426   0.000436
     16      -0.000411  -0.003923   0.001666
     17       0.000059   0.000390  -0.000122
     18      -0.000721  -0.000094   0.000201
     19      -0.000211  -0.000067   0.000061
     20      -0.000001   0.000004   0.000001
     21      -0.000193  -0.000220   0.000051
     22       0.000479   0.000957  -0.000223
     23      -0.000044  -0.000086   0.000019
     24       0.804082   0.051148  -0.001534
     25      -0.579730  -0.042949   0.001017
     26       0.070000   0.004956  -0.000124
     27       0.002433  -0.001038   0.848654
     28      -0.000127  -0.000610  -0.519547
     29       0.000082   0.000022   0.067466
     30      -0.066674   0.903656   0.000804
     31      -0.026666   0.413614   0.000891
     32       0.000380  -0.009317  -0.000050


-----------
IR SPECTRUM
-----------

 Mode    freq (cm**-1)   T**2         TX         TY         TZ
-------------------------------------------------------------------
   6:       156.86    4.416391  ( -0.050820   0.174355   2.093659)
   7:       192.14    2.002038  (  0.038712  -0.113646  -1.409831)
   8:       391.98   10.637347  (  2.927247  -1.423595   0.204819)
   9:       443.94    9.357430  ( -0.095310   0.257901   3.046610)
  10:       523.60    6.243267  (  1.581215   1.931274  -0.114919)
  11:       561.05    3.360108  ( -1.784117   0.411629  -0.087163)
  12:       611.79    3.714234  (  1.899956   0.320704   0.039385)
  13:       700.68   34.088788  (  0.175201  -0.497001  -5.814730)
  14:       725.07   14.598481  (  0.111762  -0.309958  -3.806562)
  15:       796.95   16.543385  (  0.127942  -0.344604  -4.050711)
  16:       802.40    2.138518  (  0.672365  -1.294186   0.107362)
  17:       813.81   58.046458  ( -0.210904   0.616993   7.590869)
  18:       967.25   18.580930  (  3.049903  -3.028439   0.327989)
  19:       991.69    0.166232  (  0.023703  -0.027938  -0.406066)
  20:       998.81   11.037801  (  0.507425  -3.271168   0.282452)
  21:      1081.26    1.126085  (  1.024870   0.275136   0.005052)
  22:      1145.15   13.463497  ( -1.386508   3.382245  -0.318610)
  23:      1326.54   90.775900  ( -2.457446  -9.178910   0.696036)
  24:      1339.35   23.186028  ( -4.332804   2.080143  -0.292982)
  25:      1382.52   11.828938  ( -3.437190  -0.085434  -0.085815)
  26:      1490.02  109.520238  (-10.161505   2.455716  -0.483237)
  27:      1598.86  258.818928  (-11.139417 -11.589149   0.651120)
  28:      1748.96  969.828044  ( 14.649426  27.417333  -1.874084)
  29:      1766.01  430.361234  ( 19.988771  -5.461876   0.989027)
  30:      3039.16  114.814266  ( -8.796226   6.074411  -0.736347)
  31:      3192.84   24.294170  ( -4.580346  -1.820371   0.029192)
  32:      3595.25    7.591234  (  2.338152  -1.445387   0.187445)

The first frequency considered to be a vibration is 6
The total number of vibrations considered is 27


--------------------------
THERMOCHEMISTRY AT 298.15K
--------------------------

Temperature         ... 298.15 K
Pressure            ... 1.00 atm
Total Mass          ... 111.08 AMU

Throughout the following assumptions are being made:
  (1) The electronic state is orbitally nondegenerate
  (2) There are no thermally accessible electronically excited states
  (3) Hindered rotations indicated by low frequency modes are not
      treated as such but are treated as vibrations and this may
      cause some error
  (4) All equations used are the standard statistical mechanics
      equations for an ideal gas
  (5) All vibrations are strictly harmonic

freq.     156.86  E(vib)   ...       0.40 
freq.     192.14  E(vib)   ...       0.36 
freq.     391.98  E(vib)   ...       0.20 
freq.     443.94  E(vib)   ...       0.17 
freq.     523.60  E(vib)   ...       0.13 
freq.     561.05  E(vib)   ...       0.11 
freq.     611.79  E(vib)   ...       0.10 
freq.     700.68  E(vib)   ...       0.07 
freq.     725.07  E(vib)   ...       0.06 
freq.     796.95  E(vib)   ...       0.05 
freq.     802.40  E(vib)   ...       0.05 
freq.     813.81  E(vib)   ...       0.05 
freq.     967.25  E(vib)   ...       0.03 
freq.     991.69  E(vib)   ...       0.02 
freq.     998.81  E(vib)   ...       0.02 
freq.    1081.26  E(vib)   ...       0.02 
freq.    1145.15  E(vib)   ...       0.01 
freq.    1326.54  E(vib)   ...       0.01 
freq.    1339.35  E(vib)   ...       0.01 
freq.    1382.52  E(vib)   ...       0.01 
freq.    1490.02  E(vib)   ...       0.00 
freq.    1598.86  E(vib)   ...       0.00 
freq.    1748.96  E(vib)   ...       0.00 
freq.    1766.01  E(vib)   ...       0.00 
freq.    3039.16  E(vib)   ...       0.00 
freq.    3192.84  E(vib)   ...       0.00 
freq.    3595.25  E(vib)   ...       0.00 

------------
INNER ENERGY
------------

The inner energy is: U= E(el) + E(ZPE) + E(vib) + E(rot) + E(trans)
    E(el)   - is the total energy from the electronic structure calculation
              = E(kin-el) + E(nuc-el) + E(el-el) + E(nuc-nuc)
    E(ZPE)  - the the zero temperature vibrational energy from the frequency calculation
    E(vib)  - the the finite temperature correction to E(ZPE) due to population
              of excited vibrational states
    E(rot)  - is the rotational thermal energy
    E(trans)- is the translational thermal energy

Summary of contributions to the inner energy U:
Electronic energy                ...   -413.74625926 Eh
Zero point energy                ...      0.07377607 Eh      46.30 kcal/mol
Thermal vibrational correction   ...      0.00298530 Eh       1.87 kcal/mol
Thermal rotational correction    ...      0.00141627 Eh       0.89 kcal/mol
Thermal translational correction ...      0.00141627 Eh       0.89 kcal/mol
-----------------------------------------------------------------------
Total thermal energy                   -413.66666536 Eh


Summary of corrections to the electronic energy:
(perhaps to be used in another calculation)
Total thermal correction                  0.00581784 Eh       3.65 kcal/mol
Non-thermal (ZPE) correction              0.07377607 Eh      46.30 kcal/mol
-----------------------------------------------------------------------
Total correction                          0.07959391 Eh      49.95 kcal/mol


--------
ENTHALPY
--------

The enthalpy is H = U + kB*T
                kB is Boltzmann's constant
Total free energy                 ...   -413.66666536 Eh 
Thermal Enthalpy correction       ...      0.00094421 Eh       0.59 kcal/mol
-----------------------------------------------------------------------
Total Enthalpy                    ...   -413.66572115 Eh


Note: Only C1 symmetry has been detected, increase convergence thresholds 
      if your molecule has a higher symmetry. Symmetry factor of 1.0 is   
      used for the rotational entropy correction. 
 

Note: Rotational entropy computed according to Herzberg 
Infrared and Raman Spectra, Chapter V,1, Van Nostrand Reinhold, 1945 
Point Group:  C1, Symmetry Number:   1  
Rotational constants in cm-1:     0.132671     0.067730     0.044839 

Vibrational entropy computed according to the QRRHO of S. Grimme
Chem.Eur.J. 2012 18 9955


-------
ENTROPY
-------

The entropy contributions are T*S = T*(S(el)+S(vib)+S(rot)+S(trans))
     S(el)   - electronic entropy
     S(vib)  - vibrational entropy
     S(rot)  - rotational entropy
     S(trans)- translational entropy
The entropies will be listed as mutliplied by the temperature to get
units of energy

Electronic entropy                ...      0.00000000 Eh      0.00 kcal/mol
Vibrational entropy               ...      0.00467616 Eh      2.93 kcal/mol
Rotational entropy                ...      0.01320104 Eh      8.28 kcal/mol
Translational entropy             ...      0.01902006 Eh     11.94 kcal/mol
-----------------------------------------------------------------------
Final entropy term                ...      0.03689726 Eh     23.15 kcal/mol

In case the symmetry of your molecule has not been determined correctly
or in case you have a reason to use a different symmetry number we print 
out the resulting rotational entropy values for sn=1,12 :
 --------------------------------------------------------
|  sn= 1 | S(rot)=       0.01320104 Eh      8.28 kcal/mol|
|  sn= 2 | S(rot)=       0.01254658 Eh      7.87 kcal/mol|
|  sn= 3 | S(rot)=       0.01216375 Eh      7.63 kcal/mol|
|  sn= 4 | S(rot)=       0.01189212 Eh      7.46 kcal/mol|
|  sn= 5 | S(rot)=       0.01168144 Eh      7.33 kcal/mol|
|  sn= 6 | S(rot)=       0.01150929 Eh      7.22 kcal/mol|
|  sn= 7 | S(rot)=       0.01136374 Eh      7.13 kcal/mol|
|  sn= 8 | S(rot)=       0.01123767 Eh      7.05 kcal/mol|
|  sn= 9 | S(rot)=       0.01112646 Eh      6.98 kcal/mol|
|  sn=10 | S(rot)=       0.01102698 Eh      6.92 kcal/mol|
|  sn=11 | S(rot)=       0.01093699 Eh      6.86 kcal/mol|
|  sn=12 | S(rot)=       0.01085483 Eh      6.81 kcal/mol|
 --------------------------------------------------------


-------------------
GIBBS FREE ENERGY
-------------------

The Gibbs free energy is G = H - T*S

Total enthalpy                    ...   -413.66572115 Eh 
Total entropy correction          ...     -0.03689726 Eh    -23.15 kcal/mol
-----------------------------------------------------------------------
Final Gibbs free energy         ...   -413.70261841 Eh

For completeness - the Gibbs free energy minus the electronic energy
G-E(el)                           ...      0.04364085 Eh     27.38 kcal/mol


Timings for individual modules:

Sum of individual times         ...       96.974 sec (=   1.616 min)
GTO integral calculation        ...        5.363 sec (=   0.089 min)   5.5 %
SCF iterations                  ...       40.206 sec (=   0.670 min)  41.5 %
SCF Gradient evaluation         ...        8.943 sec (=   0.149 min)   9.2 %
Geometry relaxation             ...        0.364 sec (=   0.006 min)   0.4 %
Analytical frequency calculation...       42.098 sec (=   0.702 min)  43.4 %
                             ****ORCA TERMINATED NORMALLY****
TOTAL RUN TIME: 0 days 0 hours 1 minutes 37 seconds 651 msec
