11
* (null), Energy   -1000.0000000
C     1.357708    0.575724   -0.019982    0.032343    0.244157   -0.019247
C     1.169529   -0.796569    0.088269    0.147963   -0.071848    0.009937
N     0.012816   -1.463992    0.112098   -0.052079   -0.112626    0.007921
C    -1.137586   -0.728374    0.019659   -0.123152    0.236374   -0.022866
N    -0.987337    0.674496   -0.092673    0.010602   -0.309633    0.026067
C     0.198487    1.422060   -0.121503   -0.368678   -0.059644   -0.005375
O    -2.278352   -1.195100    0.027552    0.083936    0.009431    0.001475
O     0.157268    2.653978   -0.224886    0.090519    0.101267   -0.005865
H     2.071990   -1.429182    0.165269   -0.004884   -0.315644    0.025917
H    -1.849786    1.206815   -0.161518    0.939985    1.179678   -0.072144
H     2.348454    1.034025   -0.030636    0.584312   -0.912438    0.091063
11
* Frequency(24) 1339.3508
C     1.361383    0.603471   -0.022169    0.032343    0.244157   -0.019247
C     1.186344   -0.804735    0.089398    0.147963   -0.071848    0.009937
N     0.006898   -1.476792    0.112998   -0.052079   -0.112626    0.007921
C    -1.151582   -0.701511    0.017060   -0.123152    0.236374   -0.022866
N    -0.986132    0.639308   -0.089710    0.010602   -0.309633    0.026067
C     0.156588    1.415282   -0.122114   -0.368678   -0.059644   -0.005375
O    -2.268813   -1.194028    0.027719    0.083936    0.009431    0.001475
O     0.167555    2.665487   -0.225552    0.090519    0.101267   -0.005865
H     2.071435   -1.465053    0.168215   -0.004884   -0.315644    0.025917
H    -1.742961    1.340879   -0.169717    0.939985    1.179678   -0.072144
H     2.414858    0.930331   -0.020287    0.584312   -0.912438    0.091063
11
* Frequency(24) 1339.3508
C     1.364661    0.628212   -0.024119    0.032343    0.244157   -0.019247
C     1.201337   -0.812015    0.090405    0.147963   -0.071848    0.009937
N     0.001620   -1.488204    0.113801   -0.052079   -0.112626    0.007921
C    -1.164061   -0.677560    0.014743   -0.123152    0.236374   -0.022866
N    -0.985058    0.607933   -0.087069    0.010602   -0.309633    0.026067
C     0.119230    1.409239   -0.122658   -0.368678   -0.059644   -0.005375
O    -2.260308   -1.193073    0.027869    0.083936    0.009431    0.001475
O     0.176727    2.675748   -0.226146    0.090519    0.101267   -0.005865
H     2.070941   -1.497037    0.170841   -0.004884   -0.315644    0.025917
H    -1.647713    1.460415   -0.177027    0.939985    1.179678   -0.072144
H     2.474066    0.837874   -0.011060    0.584312   -0.912438    0.091063
11
* Frequency(24) 1339.3508
C     1.367185    0.647264   -0.025621    0.032343    0.244157   -0.019247
C     1.212883   -0.817621    0.091181    0.147963   -0.071848    0.009937
N    -0.002443   -1.496993    0.114419   -0.052079   -0.112626    0.007921
C    -1.173671   -0.659115    0.012959   -0.123152    0.236374   -0.022866
N    -0.984231    0.583771   -0.085035    0.010602   -0.309633    0.026067
C     0.090461    1.404584   -0.123078   -0.368678   -0.059644   -0.005375
O    -2.253758   -1.192337    0.027984    0.083936    0.009431    0.001475
O     0.183790    2.683650   -0.226604    0.090519    0.101267   -0.005865
H     2.070560   -1.521668    0.172863   -0.004884   -0.315644    0.025917
H    -1.574362    1.552470   -0.182657    0.939985    1.179678   -0.072144
H     2.519662    0.766673   -0.003954    0.584312   -0.912438    0.091063
11
* Frequency(24) 1339.3508
C     1.368682    0.658564   -0.026512    0.032343    0.244157   -0.019247
C     1.219731   -0.820947    0.091640    0.147963   -0.071848    0.009937
N    -0.004854   -1.502205    0.114786   -0.052079   -0.112626    0.007921
C    -1.179370   -0.648175    0.011900   -0.123152    0.236374   -0.022866
N    -0.983740    0.569441   -0.083828    0.010602   -0.309633    0.026067
C     0.073398    1.401824   -0.123327   -0.368678   -0.059644   -0.005375
O    -2.249874   -1.191900    0.028052    0.083936    0.009431    0.001475
O     0.187980    2.688337   -0.226875    0.090519    0.101267   -0.005865
H     2.070333   -1.536277    0.174063   -0.004884   -0.315644    0.025917
H    -1.530858    1.607068   -0.185996    0.939985    1.179678   -0.072144
H     2.546705    0.724443    0.000261    0.584312   -0.912438    0.091063
11
* Frequency(24) 1339.3508
C     1.368989    0.660887   -0.026695    0.032343    0.244157   -0.019247
C     1.221139   -0.821630    0.091735    0.147963   -0.071848    0.009937
N    -0.005349   -1.503277    0.114861   -0.052079   -0.112626    0.007921
C    -1.180542   -0.645926    0.011683   -0.123152    0.236374   -0.022866
N    -0.983639    0.566495   -0.083580    0.010602   -0.309633    0.026067
C     0.069890    1.401256   -0.123378   -0.368678   -0.059644   -0.005375
O    -2.249075   -1.191811    0.028066    0.083936    0.009431    0.001475
O     0.188841    2.689300   -0.226931    0.090519    0.101267   -0.005865
H     2.070287   -1.539280    0.174309   -0.004884   -0.315644    0.025917
H    -1.521914    1.618292   -0.186682    0.939985    1.179678   -0.072144
H     2.552265    0.715762    0.001127    0.584312   -0.912438    0.091063
11
* Frequency(24) 1339.3508
C     1.368074    0.653982   -0.026151    0.032343    0.244157   -0.019247
C     1.216954   -0.819598    0.091454    0.147963   -0.071848    0.009937
N    -0.003876   -1.500091    0.114637   -0.052079   -0.112626    0.007921
C    -1.177059   -0.652611    0.012330   -0.123152    0.236374   -0.022866
N    -0.983939    0.575252   -0.084318    0.010602   -0.309633    0.026067
C     0.080318    1.402943   -0.123226   -0.368678   -0.059644   -0.005375
O    -2.251449   -1.192077    0.028025    0.083936    0.009431    0.001475
O     0.186281    2.686436   -0.226765    0.090519    0.101267   -0.005865
H     2.070425   -1.530352    0.173576   -0.004884   -0.315644    0.025917
H    -1.548501    1.584926   -0.184642    0.939985    1.179678   -0.072144
H     2.535738    0.741569   -0.001449    0.584312   -0.912438    0.091063
11
* Frequency(24) 1339.3508
C     1.366036    0.638595   -0.024938    0.032343    0.244157   -0.019247
C     1.207630   -0.815070    0.090828    0.147963   -0.071848    0.009937
N    -0.000594   -1.492994    0.114138   -0.052079   -0.112626    0.007921
C    -1.169298   -0.667507    0.013771   -0.123152    0.236374   -0.022866
N    -0.984607    0.594765   -0.085960    0.010602   -0.309633    0.026067
C     0.103551    1.406702   -0.122887   -0.368678   -0.059644   -0.005375
O    -2.256738   -1.192672    0.027932    0.083936    0.009431    0.001475
O     0.180577    2.680055   -0.226396    0.090519    0.101267   -0.005865
H     2.070733   -1.510461    0.171943   -0.004884   -0.315644    0.025917
H    -1.607736    1.510586   -0.180096    0.939985    1.179678   -0.072144
H     2.498916    0.799069   -0.007187    0.584312   -0.912438    0.091063
11
* Frequency(24) 1339.3508
C     1.363096    0.616396   -0.023188    0.032343    0.244157   -0.019247
C     1.194177   -0.808538    0.089924    0.147963   -0.071848    0.009937
N     0.004141   -1.482754    0.113417   -0.052079   -0.112626    0.007921
C    -1.158101   -0.688999    0.015850   -0.123152    0.236374   -0.022866
N    -0.985571    0.622917   -0.088330    0.010602   -0.309633    0.026067
C     0.137072    1.412125   -0.122398   -0.368678   -0.059644   -0.005375
O    -2.264370   -1.193529    0.027798    0.083936    0.009431    0.001475
O     0.172346    2.670847   -0.225862    0.090519    0.101267   -0.005865
H     2.071177   -1.481762    0.169587   -0.004884   -0.315644    0.025917
H    -1.693201    1.403327   -0.173536    0.939985    1.179678   -0.072144
H     2.445790    0.882029   -0.015467    0.584312   -0.912438    0.091063
11
* Frequency(24) 1339.3508
C     1.359571    0.589790   -0.021090    0.032343    0.244157   -0.019247
C     1.178053   -0.800708    0.088842    0.147963   -0.071848    0.009937
N     0.009816   -1.470481    0.112554   -0.052079   -0.112626    0.007921
C    -1.144681   -0.714757    0.018342   -0.123152    0.236374   -0.022866
N    -0.986727    0.656659   -0.091171    0.010602   -0.309633    0.026067
C     0.177248    1.418624   -0.121812   -0.368678   -0.059644   -0.005375
O    -2.273517   -1.194557    0.027637    0.083936    0.009431    0.001475
O     0.162482    2.659812   -0.225223    0.090519    0.101267   -0.005865
H     2.071709   -1.447366    0.166762   -0.004884   -0.315644    0.025917
H    -1.795635    1.274774   -0.165674    0.939985    1.179678   -0.072144
H     2.382115    0.981461   -0.025390    0.584312   -0.912438    0.091063
11
* Frequency(24) 1339.3508
C     1.355845    0.561659   -0.018873    0.032343    0.244157   -0.019247
C     1.161005   -0.792430    0.087697    0.147963   -0.071848    0.009937
N     0.015816   -1.457504    0.111642   -0.052079   -0.112626    0.007921
C    -1.130491   -0.741991    0.020976   -0.123152    0.236374   -0.022866
N    -0.987948    0.692334   -0.094174    0.010602   -0.309633    0.026067
C     0.219725    1.425496   -0.121193   -0.368678   -0.059644   -0.005375
O    -2.283188   -1.195644    0.027467    0.083936    0.009431    0.001475
O     0.152053    2.648144   -0.224548    0.090519    0.101267   -0.005865
H     2.072272   -1.410998    0.163776   -0.004884   -0.315644    0.025917
H    -1.903936    1.138856   -0.157362    0.939985    1.179678   -0.072144
H     2.314793    1.086588   -0.035882    0.584312   -0.912438    0.091063
11
* Frequency(24) 1339.3508
C     1.352320    0.535052   -0.016775    0.032343    0.244157   -0.019247
C     1.144881   -0.784601    0.086614    0.147963   -0.071848    0.009937
N     0.021491   -1.445231    0.110778   -0.052079   -0.112626    0.007921
C    -1.117071   -0.767750    0.023468   -0.123152    0.236374   -0.022866
N    -0.989104    0.726075   -0.097015    0.010602   -0.309633    0.026067
C     0.259902    1.431996   -0.120607   -0.368678   -0.059644   -0.005375
O    -2.292335   -1.196671    0.027306    0.083936    0.009431    0.001475
O     0.142189    2.637109   -0.223909    0.090519    0.101267   -0.005865
H     2.072804   -1.376601    0.160952   -0.004884   -0.315644    0.025917
H    -2.006370    1.010302   -0.149501    0.939985    1.179678   -0.072144
H     2.251118    1.186020   -0.045805    0.584312   -0.912438    0.091063
11
* Frequency(24) 1339.3508
C     1.349379    0.512853   -0.015025    0.032343    0.244157   -0.019247
C     1.131428   -0.778068    0.085710    0.147963   -0.071848    0.009937
N     0.026227   -1.434991    0.110058   -0.052079   -0.112626    0.007921
C    -1.105874   -0.789241    0.025547   -0.123152    0.236374   -0.022866
N    -0.990068    0.754228   -0.099385    0.010602   -0.309633    0.026067
C     0.293422    1.437419   -0.120119   -0.368678   -0.059644   -0.005375
O    -2.299966   -1.197529    0.027172    0.083936    0.009431    0.001475
O     0.133959    2.627901   -0.223375    0.090519    0.101267   -0.005865
H     2.073248   -1.347902    0.158596   -0.004884   -0.315644    0.025917
H    -2.091835    0.903043   -0.142941    0.939985    1.179678   -0.072144
H     2.197992    1.268980   -0.054085    0.584312   -0.912438    0.091063
11
* Frequency(24) 1339.3508
C     1.347341    0.497467   -0.013813    0.032343    0.244157   -0.019247
C     1.122104   -0.773541    0.085084    0.147963   -0.071848    0.009937
N     0.029508   -1.427893    0.109559   -0.052079   -0.112626    0.007921
C    -1.098113   -0.804137    0.026988   -0.123152    0.236374   -0.022866
N    -0.990736    0.773740   -0.101028    0.010602   -0.309633    0.026067
C     0.316656    1.441177   -0.119780   -0.368678   -0.059644   -0.005375
O    -2.305256   -1.198123    0.027079    0.083936    0.009431    0.001475
O     0.128254    2.621520   -0.223006    0.090519    0.101267   -0.005865
H     2.073556   -1.328011    0.156962   -0.004884   -0.315644    0.025917
H    -2.151070    0.828703   -0.138395    0.939985    1.179678   -0.072144
H     2.161170    1.326480   -0.059824    0.584312   -0.912438    0.091063
11
* Frequency(24) 1339.3508
C     1.346426    0.490561   -0.013268    0.032343    0.244157   -0.019247
C     1.117919   -0.771508    0.084803    0.147963   -0.071848    0.009937
N     0.030981   -1.424708    0.109335   -0.052079   -0.112626    0.007921
C    -1.094630   -0.810822    0.027635   -0.123152    0.236374   -0.022866
N    -0.991036    0.782498   -0.101765    0.010602   -0.309633    0.026067
C     0.327083    1.442864   -0.119628   -0.368678   -0.059644   -0.005375
O    -2.307630   -1.198390    0.027037    0.083936    0.009431    0.001475
O     0.125694    2.618656   -0.222840    0.090519    0.101267   -0.005865
H     2.073694   -1.319084    0.156229   -0.004884   -0.315644    0.025917
H    -2.177657    0.795337   -0.136354    0.939985    1.179678   -0.072144
H     2.144643    1.352287   -0.062399    0.584312   -0.912438    0.091063
11
* Frequency(24) 1339.3508
C     1.346734    0.492884   -0.013451    0.032343    0.244157   -0.019247
C     1.119327   -0.772192    0.084898    0.147963   -0.071848    0.009937
N     0.030486   -1.425780    0.109410   -0.052079   -0.112626    0.007921
C    -1.095802   -0.808573    0.027417   -0.123152    0.236374   -0.022866
N    -0.990935    0.779552   -0.101517    0.010602   -0.309633    0.026067
C     0.323575    1.442297   -0.119679   -0.368678   -0.059644   -0.005375
O    -2.306831   -1.198300    0.027051    0.083936    0.009431    0.001475
O     0.126555    2.619619   -0.222896    0.090519    0.101267   -0.005865
H     2.073647   -1.322087    0.156476   -0.004884   -0.315644    0.025917
H    -2.168713    0.806561   -0.137041    0.939985    1.179678   -0.072144
H     2.150203    1.343606   -0.061533    0.584312   -0.912438    0.091063
11
* Frequency(24) 1339.3508
C     1.348231    0.504184   -0.014342    0.032343    0.244157   -0.019247
C     1.126175   -0.775517    0.085358    0.147963   -0.071848    0.009937
N     0.028076   -1.430992    0.109777   -0.052079   -0.112626    0.007921
C    -1.101501   -0.797634    0.026359   -0.123152    0.236374   -0.022866
N    -0.990444    0.765221   -0.100311    0.010602   -0.309633    0.026067
C     0.306512    1.439536   -0.119928   -0.368678   -0.059644   -0.005375
O    -2.302946   -1.197864    0.027120    0.083936    0.009431    0.001475
O     0.130745    2.624306   -0.223167    0.090519    0.101267   -0.005865
H     2.073421   -1.336696    0.157675   -0.004884   -0.315644    0.025917
H    -2.125209    0.861159   -0.140380    0.939985    1.179678   -0.072144
H     2.177246    1.301377   -0.057318    0.584312   -0.912438    0.091063
11
* Frequency(24) 1339.3508
C     1.350755    0.523237   -0.015844    0.032343    0.244157   -0.019247
C     1.137721   -0.781124    0.086133    0.147963   -0.071848    0.009937
N     0.024012   -1.439781    0.110395   -0.052079   -0.112626    0.007921
C    -1.111111   -0.779188    0.024575   -0.123152    0.236374   -0.022866
N    -0.989617    0.741059   -0.098277    0.010602   -0.309633    0.026067
C     0.277743    1.434882   -0.120347   -0.368678   -0.059644   -0.005375
O    -2.296397   -1.197128    0.027235    0.083936    0.009431    0.001475
O     0.137808    2.632208   -0.223625    0.090519    0.101267   -0.005865
H     2.073040   -1.361326    0.159698   -0.004884   -0.315644    0.025917
H    -2.051858    0.953214   -0.146009    0.939985    1.179678   -0.072144
H     2.222842    1.230175   -0.050212    0.584312   -0.912438    0.091063
11
* Frequency(24) 1339.3508
C     1.354032    0.547977   -0.017794    0.032343    0.244157   -0.019247
C     1.152714   -0.788404    0.087140    0.147963   -0.071848    0.009937
N     0.018735   -1.451193    0.111198   -0.052079   -0.112626    0.007921
C    -1.123590   -0.755237    0.022257   -0.123152    0.236374   -0.022866
N    -0.988542    0.709684   -0.095635    0.010602   -0.309633    0.026067
C     0.240385    1.428839   -0.120892   -0.368678   -0.059644   -0.005375
O    -2.287891   -1.196172    0.027384    0.083936    0.009431    0.001475
O     0.146981    2.642470   -0.224219    0.090519    0.101267   -0.005865
H     2.072545   -1.393311    0.162324   -0.004884   -0.315644    0.025917
H    -1.956610    1.072750   -0.153320    0.939985    1.179678   -0.072144
H     2.282050    1.137718   -0.040985    0.584312   -0.912438    0.091063
11
* Frequency(24) 1339.3508
C     1.357708    0.575724   -0.019982    0.032343    0.244157   -0.019247
C     1.169529   -0.796569    0.088269    0.147963   -0.071848    0.009937
N     0.012816   -1.463992    0.112098   -0.052079   -0.112626    0.007921
C    -1.137586   -0.728374    0.019659   -0.123152    0.236374   -0.022866
N    -0.987337    0.674496   -0.092673    0.010602   -0.309633    0.026067
C     0.198487    1.422060   -0.121503   -0.368678   -0.059644   -0.005375
O    -2.278352   -1.195100    0.027552    0.083936    0.009431    0.001475
O     0.157268    2.653978   -0.224886    0.090519    0.101267   -0.005865
H     2.071990   -1.429182    0.165269   -0.004884   -0.315644    0.025917
H    -1.849786    1.206815   -0.161518    0.939985    1.179678   -0.072144
H     2.348454    1.034025   -0.030636    0.584312   -0.912438    0.091063
