11
* (null), Energy   -1000.0000000
C     1.357708    0.575724   -0.019982   -0.113576    0.044043   -0.006663
C     1.169529   -0.796569    0.088269   -0.213588   -0.035618   -0.002967
N     0.012816   -1.463992    0.112098    0.301387    0.089539    0.000782
C    -1.137586   -0.728374    0.019659    0.026146   -0.181825    0.015927
N    -0.987337    0.674496   -0.092673   -0.221959   -0.113218    0.003182
C     0.198487    1.422060   -0.121503    0.237625   -0.013626    0.007647
O    -2.278352   -1.195100    0.027552    0.040600    0.096016   -0.006885
O     0.157268    2.653978   -0.224886   -0.013121    0.058262   -0.005194
H     2.071990   -1.429182    0.165269   -1.011963   -1.146498    0.067802
H    -1.849786    1.206815   -0.161518    0.456585    0.998071   -0.069779
H     2.348454    1.034025   -0.030636   -0.229094    0.257305   -0.027547
11
* Frequency(23) 1326.5416
C     1.344800    0.580730   -0.020739   -0.113576    0.044043   -0.006663
C     1.145256   -0.800617    0.087932   -0.213588   -0.035618   -0.002967
N     0.047067   -1.453817    0.112187    0.301387    0.089539    0.000782
C    -1.134615   -0.749038    0.021469    0.026146   -0.181825    0.015927
N    -1.012562    0.661630   -0.092311   -0.221959   -0.113218    0.003182
C     0.225491    1.420512   -0.120634    0.237625   -0.013626    0.007647
O    -2.273738   -1.184189    0.026769    0.040600    0.096016   -0.006885
O     0.155776    2.660599   -0.225476   -0.013121    0.058262   -0.005194
H     1.956986   -1.559475    0.172975   -1.011963   -1.146498    0.067802
H    -1.797897    1.320240   -0.169448    0.456585    0.998071   -0.069779
H     2.322419    1.063266   -0.033767   -0.229094    0.257305   -0.027547
11
* Frequency(23) 1326.5416
C     1.333292    0.585192   -0.021414   -0.113576    0.044043   -0.006663
C     1.123613   -0.804226    0.087631   -0.213588   -0.035618   -0.002967
N     0.077607   -1.444744    0.112266    0.301387    0.089539    0.000782
C    -1.131965   -0.767462    0.023083    0.026146   -0.181825    0.015927
N    -1.035053    0.650157   -0.091989   -0.221959   -0.113218    0.003182
C     0.249570    1.419131   -0.119859    0.237625   -0.013626    0.007647
O    -2.269625   -1.174459    0.026072    0.040600    0.096016   -0.006885
O     0.154447    2.666503   -0.226002   -0.013121    0.058262   -0.005194
H     1.854444   -1.675650    0.179845   -1.011963   -1.146498    0.067802
H    -1.751632    1.421374   -0.176519    0.456585    0.998071   -0.069779
H     2.299205    1.089339   -0.036558   -0.229094    0.257305   -0.027547
11
* Frequency(23) 1326.5416
C     1.324429    0.588629   -0.021934   -0.113576    0.044043   -0.006663
C     1.106946   -0.807006    0.087400   -0.213588   -0.035618   -0.002967
N     0.101125   -1.437757    0.112327    0.301387    0.089539    0.000782
C    -1.129925   -0.781650    0.024325    0.026146   -0.181825    0.015927
N    -1.052373    0.641322   -0.091740   -0.221959   -0.113218    0.003182
C     0.268113    1.418068   -0.119262    0.237625   -0.013626    0.007647
O    -2.266456   -1.166967    0.025535    0.040600    0.096016   -0.006885
O     0.153423    2.671049   -0.226407   -0.013121    0.058262   -0.005194
H     1.775477   -1.765115    0.185136   -1.011963   -1.146498    0.067802
H    -1.716002    1.499258   -0.181964    0.456585    0.998071   -0.069779
H     2.281327    1.109417   -0.038708   -0.229094    0.257305   -0.027547
11
* Frequency(23) 1326.5416
C     1.319173    0.590668   -0.022242   -0.113576    0.044043   -0.006663
C     1.097060   -0.808654    0.087262   -0.213588   -0.035618   -0.002967
N     0.115074   -1.433613    0.112363    0.301387    0.089539    0.000782
C    -1.128715   -0.790066    0.025063    0.026146   -0.181825    0.015927
N    -1.062646    0.636082   -0.091593   -0.221959   -0.113218    0.003182
C     0.279110    1.417437   -0.118908    0.237625   -0.013626    0.007647
O    -2.264577   -1.162523    0.025216    0.040600    0.096016   -0.006885
O     0.152816    2.673746   -0.226648   -0.013121    0.058262   -0.005194
H     1.728641   -1.818177    0.188274   -1.011963   -1.146498    0.067802
H    -1.694871    1.545450   -0.185194    0.456585    0.998071   -0.069779
H     2.270725    1.121326   -0.039983   -0.229094    0.257305   -0.027547
11
* Frequency(23) 1326.5416
C     1.318092    0.591087   -0.022306   -0.113576    0.044043   -0.006663
C     1.095028   -0.808993    0.087234   -0.213588   -0.035618   -0.002967
N     0.117941   -1.432761    0.112371    0.301387    0.089539    0.000782
C    -1.128466   -0.791796    0.025214    0.026146   -0.181825    0.015927
N    -1.064758    0.635005   -0.091563   -0.221959   -0.113218    0.003182
C     0.281371    1.417308   -0.118835    0.237625   -0.013626    0.007647
O    -2.264191   -1.161610    0.025150    0.040600    0.096016   -0.006885
O     0.152691    2.674300   -0.226697   -0.013121    0.058262   -0.005194
H     1.719013   -1.829086    0.188919   -1.011963   -1.146498    0.067802
H    -1.690527    1.554946   -0.185858    0.456585    0.998071   -0.069779
H     2.268545    1.123774   -0.040245   -0.229094    0.257305   -0.027547
11
* Frequency(23) 1326.5416
C     1.321304    0.589841   -0.022117   -0.113576    0.044043   -0.006663
C     1.101069   -0.807986    0.087318   -0.213588   -0.035618   -0.002967
N     0.109417   -1.435293    0.112349    0.301387    0.089539    0.000782
C    -1.129206   -0.786653    0.024764    0.026146   -0.181825    0.015927
N    -1.058480    0.638207   -0.091653   -0.221959   -0.113218    0.003182
C     0.274650    1.417693   -0.119052    0.237625   -0.013626    0.007647
O    -2.265339   -1.164325    0.025345    0.040600    0.096016   -0.006885
O     0.153062    2.672652   -0.226550   -0.013121    0.058262   -0.005194
H     1.747635   -1.796658    0.187001   -1.011963   -1.146498    0.067802
H    -1.703441    1.526717   -0.183884    0.456585    0.998071   -0.069779
H     2.275024    1.116496   -0.039465   -0.229094    0.257305   -0.027547
11
* Frequency(23) 1326.5416
C     1.328462    0.587066   -0.021697   -0.113576    0.044043   -0.006663
C     1.114529   -0.805741    0.087505   -0.213588   -0.035618   -0.002967
N     0.090424   -1.440936    0.112299    0.301387    0.089539    0.000782
C    -1.130853   -0.775195    0.023760    0.026146   -0.181825    0.015927
N    -1.044492    0.645342   -0.091853   -0.221959   -0.113218    0.003182
C     0.259676    1.418552   -0.119534    0.237625   -0.013626    0.007647
O    -2.267898   -1.170376    0.025779    0.040600    0.096016   -0.006885
O     0.153889    2.668981   -0.226223   -0.013121    0.058262   -0.005194
H     1.811407   -1.724409    0.182729   -1.011963   -1.146498    0.067802
H    -1.732213    1.463821   -0.179487    0.456585    0.998071   -0.069779
H     2.289461    1.100281   -0.037730   -0.229094    0.257305   -0.027547
11
* Frequency(23) 1326.5416
C     1.338788    0.583061   -0.021092   -0.113576    0.044043   -0.006663
C     1.133949   -0.802503    0.087775   -0.213588   -0.035618   -0.002967
N     0.063022   -1.449077    0.112228    0.301387    0.089539    0.000782
C    -1.133231   -0.758663    0.022312    0.026146   -0.181825    0.015927
N    -1.024312    0.655636   -0.092143   -0.221959   -0.113218    0.003182
C     0.238070    1.419791   -0.120229    0.237625   -0.013626    0.007647
O    -2.271589   -1.179106    0.026405    0.040600    0.096016   -0.006885
O     0.155082    2.663683   -0.225751   -0.013121    0.058262   -0.005194
H     1.903416   -1.620167    0.176564   -1.011963   -1.146498    0.067802
H    -1.773727    1.373075   -0.173142    0.456585    0.998071   -0.069779
H     2.310291    1.076887   -0.035225   -0.229094    0.257305   -0.027547
11
* Frequency(23) 1326.5416
C     1.351165    0.578261   -0.020365   -0.113576    0.044043   -0.006663
C     1.157224   -0.798621    0.088098   -0.213588   -0.035618   -0.002967
N     0.030178   -1.458834    0.112143    0.301387    0.089539    0.000782
C    -1.136080   -0.738849    0.020576    0.026146   -0.181825    0.015927
N    -1.000124    0.667974   -0.092489   -0.221959   -0.113218    0.003182
C     0.212176    1.421275   -0.121062    0.237625   -0.013626    0.007647
O    -2.276014   -1.189569    0.027155    0.040600    0.096016   -0.006885
O     0.156512    2.657334   -0.225185   -0.013121    0.058262   -0.005194
H     2.013693   -1.495229    0.169175   -1.011963   -1.146498    0.067802
H    -1.823483    1.264312   -0.165538    0.456585    0.998071   -0.069779
H     2.335256    1.048847   -0.032223   -0.229094    0.257305   -0.027547
11
* Frequency(23) 1326.5416
C     1.364251    0.573187   -0.019598   -0.113576    0.044043   -0.006663
C     1.181833   -0.794517    0.088440   -0.213588   -0.035618   -0.002967
N    -0.004546   -1.469151    0.112053    0.301387    0.089539    0.000782
C    -1.139092   -0.717900    0.018741    0.026146   -0.181825    0.015927
N    -0.974551    0.681018   -0.092856   -0.221959   -0.113218    0.003182
C     0.184797    1.422845   -0.121943    0.237625   -0.013626    0.007647
O    -2.280691   -1.200631    0.027948    0.040600    0.096016   -0.006885
O     0.158023    2.650622   -0.224586   -0.013121    0.058262   -0.005194
H     2.130288   -1.363134    0.161364   -1.011963   -1.146498    0.067802
H    -1.876089    1.149318   -0.157499    0.456585    0.998071   -0.069779
H     2.361652    1.019202   -0.029049   -0.229094    0.257305   -0.027547
11
* Frequency(23) 1326.5416
C     1.376627    0.568387   -0.018872   -0.113576    0.044043   -0.006663
C     1.205109   -0.790636    0.088763   -0.213588   -0.035618   -0.002967
N    -0.037389   -1.478908    0.111968    0.301387    0.089539    0.000782
C    -1.141941   -0.698085    0.017006    0.026146   -0.181825    0.015927
N    -0.950363    0.693356   -0.093203   -0.221959   -0.113218    0.003182
C     0.158903    1.424330   -0.122777    0.237625   -0.013626    0.007647
O    -2.285116   -1.211095    0.028699    0.040600    0.096016   -0.006885
O     0.159453    2.644273   -0.224020   -0.013121    0.058262   -0.005194
H     2.240565   -1.238196    0.153975   -1.011963   -1.146498    0.067802
H    -1.925844    1.040554   -0.149894    0.456585    0.998071   -0.069779
H     2.386617    0.991162   -0.026047   -0.229094    0.257305   -0.027547
11
* Frequency(23) 1326.5416
C     1.386954    0.564383   -0.018266   -0.113576    0.044043   -0.006663
C     1.224529   -0.787398    0.089033   -0.213588   -0.035618   -0.002967
N    -0.064792   -1.487049    0.111896    0.301387    0.089539    0.000782
C    -1.144319   -0.681553    0.015558    0.026146   -0.181825    0.015927
N    -0.930182    0.703650   -0.093492   -0.221959   -0.113218    0.003182
C     0.137297    1.425569   -0.123472    0.237625   -0.013626    0.007647
O    -2.288807   -1.219825    0.029325    0.040600    0.096016   -0.006885
O     0.160646    2.638975   -0.223548   -0.013121    0.058262   -0.005194
H     2.332574   -1.133955    0.147810   -1.011963   -1.146498    0.067802
H    -1.967358    0.949808   -0.143550    0.456585    0.998071   -0.069779
H     2.407447    0.967768   -0.023543   -0.229094    0.257305   -0.027547
11
* Frequency(23) 1326.5416
C     1.394111    0.561607   -0.017846   -0.113576    0.044043   -0.006663
C     1.237988   -0.785153    0.089220   -0.213588   -0.035618   -0.002967
N    -0.083785   -1.492691    0.111847    0.301387    0.089539    0.000782
C    -1.145966   -0.670095    0.014554    0.026146   -0.181825    0.015927
N    -0.916195    0.710785   -0.093693   -0.221959   -0.113218    0.003182
C     0.122323    1.426428   -0.123954    0.237625   -0.013626    0.007647
O    -2.291365   -1.225875    0.029759    0.040600    0.096016   -0.006885
O     0.161473    2.635304   -0.223221   -0.013121    0.058262   -0.005194
H     2.396346   -1.061706    0.143538   -1.011963   -1.146498    0.067802
H    -1.996130    0.886912   -0.139153    0.456585    0.998071   -0.069779
H     2.421883    0.951553   -0.021807   -0.229094    0.257305   -0.027547
11
* Frequency(23) 1326.5416
C     1.397324    0.560362   -0.017657   -0.113576    0.044043   -0.006663
C     1.244029   -0.784146    0.089304   -0.213588   -0.035618   -0.002967
N    -0.092309   -1.495224    0.111825    0.301387    0.089539    0.000782
C    -1.146706   -0.664953    0.014104    0.026146   -0.181825    0.015927
N    -0.909917    0.713987   -0.093783   -0.221959   -0.113218    0.003182
C     0.115602    1.426813   -0.124170    0.237625   -0.013626    0.007647
O    -2.292514   -1.228591    0.029953    0.040600    0.096016   -0.006885
O     0.161844    2.633656   -0.223074   -0.013121    0.058262   -0.005194
H     2.424968   -1.029278    0.141620   -1.011963   -1.146498    0.067802
H    -2.009044    0.858683   -0.137179    0.456585    0.998071   -0.069779
H     2.428363    0.944275   -0.021028   -0.229094    0.257305   -0.027547
11
* Frequency(23) 1326.5416
C     1.396243    0.560781   -0.017721   -0.113576    0.044043   -0.006663
C     1.241997   -0.784485    0.089276   -0.213588   -0.035618   -0.002967
N    -0.089441   -1.494372    0.111832    0.301387    0.089539    0.000782
C    -1.146457   -0.666683    0.014255    0.026146   -0.181825    0.015927
N    -0.912029    0.712910   -0.093752   -0.221959   -0.113218    0.003182
C     0.117863    1.426683   -0.124097    0.237625   -0.013626    0.007647
O    -2.292127   -1.227677    0.029888    0.040600    0.096016   -0.006885
O     0.161720    2.634210   -0.223123   -0.013121    0.058262   -0.005194
H     2.415340   -1.040186    0.142265   -1.011963   -1.146498    0.067802
H    -2.004700    0.868179   -0.137843    0.456585    0.998071   -0.069779
H     2.426183    0.946724   -0.021290   -0.229094    0.257305   -0.027547
11
* Frequency(23) 1326.5416
C     1.390986    0.562819   -0.018029   -0.113576    0.044043   -0.006663
C     1.232112   -0.786133    0.089138   -0.213588   -0.035618   -0.002967
N    -0.075493   -1.490228    0.111869    0.301387    0.089539    0.000782
C    -1.145247   -0.675098    0.014992    0.026146   -0.181825    0.015927
N    -0.922302    0.707670   -0.093605   -0.221959   -0.113218    0.003182
C     0.128861    1.426053   -0.123743    0.237625   -0.013626    0.007647
O    -2.290248   -1.223234    0.029569    0.040600    0.096016   -0.006885
O     0.161112    2.636907   -0.223364   -0.013121    0.058262   -0.005194
H     2.368504   -1.093248    0.145403   -1.011963   -1.146498    0.067802
H    -1.983569    0.914372   -0.141073    0.456585    0.998071   -0.069779
H     2.415581    0.958632   -0.022565   -0.229094    0.257305   -0.027547
11
* Frequency(23) 1326.5416
C     1.382124    0.566256   -0.018549   -0.113576    0.044043   -0.006663
C     1.215445   -0.788912    0.088907   -0.213588   -0.035618   -0.002967
N    -0.051974   -1.483241    0.111930    0.301387    0.089539    0.000782
C    -1.143207   -0.689286    0.016235    0.026146   -0.181825    0.015927
N    -0.939622    0.698835   -0.093357   -0.221959   -0.113218    0.003182
C     0.147403    1.424990   -0.123147    0.237625   -0.013626    0.007647
O    -2.287080   -1.215741    0.029032    0.040600    0.096016   -0.006885
O     0.160088    2.641453   -0.223769   -0.013121    0.058262   -0.005194
H     2.289537   -1.182714    0.150694   -1.011963   -1.146498    0.067802
H    -1.947940    0.992255   -0.146518    0.456585    0.998071   -0.069779
H     2.397703    0.978711   -0.024714   -0.229094    0.257305   -0.027547
11
* Frequency(23) 1326.5416
C     1.370615    0.570719   -0.019224   -0.113576    0.044043   -0.006663
C     1.193802   -0.792522    0.088606   -0.213588   -0.035618   -0.002967
N    -0.021435   -1.474168    0.112009    0.301387    0.089539    0.000782
C    -1.140557   -0.707711    0.017849    0.026146   -0.181825    0.015927
N    -0.962113    0.687363   -0.093034   -0.221959   -0.113218    0.003182
C     0.171482    1.423609   -0.122372    0.237625   -0.013626    0.007647
O    -2.282966   -1.206012    0.028334    0.040600    0.096016   -0.006885
O     0.158759    2.647357   -0.224295   -0.013121    0.058262   -0.005194
H     2.186995   -1.298888    0.157564   -1.011963   -1.146498    0.067802
H    -1.901674    1.093389   -0.153588    0.456585    0.998071   -0.069779
H     2.374489    1.004783   -0.027506   -0.229094    0.257305   -0.027547
11
* Frequency(23) 1326.5416
C     1.357708    0.575724   -0.019982   -0.113576    0.044043   -0.006663
C     1.169529   -0.796569    0.088269   -0.213588   -0.035618   -0.002967
N     0.012816   -1.463992    0.112098    0.301387    0.089539    0.000782
C    -1.137586   -0.728374    0.019659    0.026146   -0.181825    0.015927
N    -0.987337    0.674496   -0.092673   -0.221959   -0.113218    0.003182
C     0.198487    1.422060   -0.121503    0.237625   -0.013626    0.007647
O    -2.278352   -1.195100    0.027552    0.040600    0.096016   -0.006885
O     0.157268    2.653978   -0.224886   -0.013121    0.058262   -0.005194
H     2.071990   -1.429182    0.165269   -1.011963   -1.146498    0.067802
H    -1.849786    1.206815   -0.161518    0.456585    0.998071   -0.069779
H     2.348454    1.034025   -0.030636   -0.229094    0.257305   -0.027547
