11
* (null), Energy   -1000.0000000
C     1.357708    0.575724   -0.019982    0.014892   -0.040480   -0.453930
C     1.169529   -0.796569    0.088269   -0.000352    0.021947    0.339333
N     0.012816   -1.463992    0.112098    0.018524   -0.046156   -0.561787
C    -1.137586   -0.728374    0.019659   -0.038546    0.108333    1.319288
N    -0.987337    0.674496   -0.092673    0.011518   -0.043499   -0.552873
C     0.198487    1.422060   -0.121503   -0.021386    0.064665    0.745846
O    -2.278352   -1.195100    0.027552    0.004426   -0.029946   -0.346936
O     0.157268    2.653978   -0.224886    0.004916   -0.012314   -0.203999
H     2.071990   -1.429182    0.165269    0.004104   -0.000082    0.109680
H    -1.849786    1.206815   -0.161518   -0.025864    0.062692    0.730108
H     2.348454    1.034025   -0.030636   -0.003098    0.013433    0.151834
11
* Frequency(17)  813.8094
C     1.359400    0.571124   -0.071568    0.014892   -0.040480   -0.453930
C     1.169489   -0.794075    0.126833   -0.000352    0.021947    0.339333
N     0.014921   -1.469238    0.048254    0.018524   -0.046156   -0.561787
C    -1.141967   -0.716063    0.169589   -0.038546    0.108333    1.319288
N    -0.986028    0.669553   -0.155504    0.011518   -0.043499   -0.552873
C     0.196056    1.429409   -0.036741   -0.021386    0.064665    0.745846
O    -2.277849   -1.198503   -0.011876    0.004426   -0.029946   -0.346936
O     0.157826    2.652579   -0.248069    0.004916   -0.012314   -0.203999
H     2.072457   -1.429191    0.177734    0.004104   -0.000082    0.109680
H    -1.852725    1.213939   -0.078545   -0.025864    0.062692    0.730108
H     2.348102    1.035551   -0.013381   -0.003098    0.013433    0.151834
11
* Frequency(17)  813.8094
C     1.360909    0.567022   -0.117565    0.014892   -0.040480   -0.453930
C     1.169453   -0.791851    0.161217   -0.000352    0.021947    0.339333
N     0.016798   -1.473915   -0.008672    0.018524   -0.046156   -0.561787
C    -1.145872   -0.705085    0.303272   -0.038546    0.108333    1.319288
N    -0.984861    0.665145   -0.211526    0.011518   -0.043499   -0.552873
C     0.193889    1.435962    0.038835   -0.021386    0.064665    0.745846
O    -2.277401   -1.201538   -0.047030    0.004426   -0.029946   -0.346936
O     0.158324    2.651331   -0.268740    0.004916   -0.012314   -0.203999
H     2.072873   -1.429199    0.188848    0.004104   -0.000082    0.109680
H    -1.855346    1.220292   -0.004564   -0.025864    0.062692    0.730108
H     2.347788    1.036912    0.002004   -0.003098    0.013433    0.151834
11
* Frequency(17)  813.8094
C     1.362071    0.563863   -0.152987    0.014892   -0.040480   -0.453930
C     1.169426   -0.790139    0.187697   -0.000352    0.021947    0.339333
N     0.018244   -1.477516   -0.052510    0.018524   -0.046156   -0.561787
C    -1.148880   -0.696632    0.406221   -0.038546    0.108333    1.319288
N    -0.983963    0.661751   -0.254669    0.011518   -0.043499   -0.552873
C     0.192220    1.441008    0.097036   -0.021386    0.064665    0.745846
O    -2.277056   -1.203875   -0.074103    0.004426   -0.029946   -0.346936
O     0.158708    2.650370   -0.284659    0.004916   -0.012314   -0.203999
H     2.073193   -1.429206    0.197407    0.004104   -0.000082    0.109680
H    -1.857364    1.225184    0.052409   -0.025864    0.062692    0.730108
H     2.347546    1.037961    0.013853   -0.003098    0.013433    0.151834
11
* Frequency(17)  813.8094
C     1.362761    0.561990   -0.173996    0.014892   -0.040480   -0.453930
C     1.169410   -0.789123    0.203402   -0.000352    0.021947    0.339333
N     0.019101   -1.479653   -0.078511    0.018524   -0.046156   -0.561787
C    -1.150664   -0.691618    0.467280   -0.038546    0.108333    1.319288
N    -0.983430    0.659737   -0.280257    0.011518   -0.043499   -0.552873
C     0.191230    1.444001    0.131555   -0.021386    0.064665    0.745846
O    -2.276851   -1.205261   -0.090160    0.004426   -0.029946   -0.346936
O     0.158936    2.649800   -0.294100    0.004916   -0.012314   -0.203999
H     2.073383   -1.429210    0.202483    0.004104   -0.000082    0.109680
H    -1.858561    1.228085    0.086200   -0.025864    0.062692    0.730108
H     2.347403    1.038582    0.020880   -0.003098    0.013433    0.151834
11
* Frequency(17)  813.8094
C     1.362902    0.561604   -0.178315    0.014892   -0.040480   -0.453930
C     1.169406   -0.788914    0.206630   -0.000352    0.021947    0.339333
N     0.019277   -1.480092   -0.083856    0.018524   -0.046156   -0.561787
C    -1.151031   -0.690587    0.479832   -0.038546    0.108333    1.319288
N    -0.983320    0.659324   -0.285517    0.011518   -0.043499   -0.552873
C     0.191027    1.444616    0.138652   -0.021386    0.064665    0.745846
O    -2.276809   -1.205546   -0.093461    0.004426   -0.029946   -0.346936
O     0.158982    2.649683   -0.296041    0.004916   -0.012314   -0.203999
H     2.073422   -1.429210    0.203526    0.004104   -0.000082    0.109680
H    -1.858807    1.228682    0.093147   -0.025864    0.062692    0.730108
H     2.347373    1.038710    0.022324   -0.003098    0.013433    0.151834
11
* Frequency(17)  813.8094
C     1.362481    0.562749   -0.165476    0.014892   -0.040480   -0.453930
C     1.169416   -0.789535    0.197032   -0.000352    0.021947    0.339333
N     0.018754   -1.478786   -0.067966    0.018524   -0.046156   -0.561787
C    -1.149941   -0.693651    0.442518   -0.038546    0.108333    1.319288
N    -0.983646    0.660554   -0.269880    0.011518   -0.043499   -0.552873
C     0.191632    1.442787    0.117556   -0.021386    0.064665    0.745846
O    -2.276934   -1.204699   -0.083648    0.004426   -0.029946   -0.346936
O     0.158843    2.650031   -0.290271    0.004916   -0.012314   -0.203999
H     2.073306   -1.429208    0.200424    0.004104   -0.000082    0.109680
H    -1.858076    1.226909    0.072496   -0.025864    0.062692    0.730108
H     2.347461    1.038330    0.018030   -0.003098    0.013433    0.151834
11
* Frequency(17)  813.8094
C     1.361543    0.565300   -0.136870    0.014892   -0.040480   -0.453930
C     1.169438   -0.790918    0.175649   -0.000352    0.021947    0.339333
N     0.017586   -1.475878   -0.032564    0.018524   -0.046156   -0.561787
C    -1.147512   -0.700478    0.359380   -0.038546    0.108333    1.319288
N    -0.984372    0.663295   -0.235039    0.011518   -0.043499   -0.552873
C     0.192980    1.438712    0.070555   -0.021386    0.064665    0.745846
O    -2.277213   -1.202811   -0.061785    0.004426   -0.029946   -0.346936
O     0.158533    2.650807   -0.277416    0.004916   -0.012314   -0.203999
H     2.073047   -1.429203    0.193512    0.004104   -0.000082    0.109680
H    -1.856446    1.222958    0.026487   -0.025864    0.062692    0.730108
H     2.347656    1.037484    0.008462   -0.003098    0.013433    0.151834
11
* Frequency(17)  813.8094
C     1.360189    0.568981   -0.095598    0.014892   -0.040480   -0.453930
C     1.169470   -0.792913    0.144796   -0.000352    0.021947    0.339333
N     0.015902   -1.471681    0.018515    0.018524   -0.046156   -0.561787
C    -1.144007   -0.710328    0.239428   -0.038546    0.108333    1.319288
N    -0.985419    0.667250   -0.184771    0.011518   -0.043499   -0.552873
C     0.194924    1.432832    0.002741   -0.021386    0.064665    0.745846
O    -2.277615   -1.200089   -0.030241    0.004426   -0.029946   -0.346936
O     0.158086    2.651927   -0.258868    0.004916   -0.012314   -0.203999
H     2.072674   -1.429196    0.183540    0.004104   -0.000082    0.109680
H    -1.854094    1.217258   -0.039896   -0.025864    0.062692    0.730108
H     2.347938    1.036262   -0.005343   -0.003098    0.013433    0.151834
11
* Frequency(17)  813.8094
C     1.358566    0.573392   -0.046132    0.014892   -0.040480   -0.453930
C     1.169509   -0.795305    0.107817   -0.000352    0.021947    0.339333
N     0.013883   -1.466651    0.079734    0.018524   -0.046156   -0.561787
C    -1.139807   -0.722133    0.095660   -0.038546    0.108333    1.319288
N    -0.986674    0.671990   -0.124523    0.011518   -0.043499   -0.552873
C     0.197255    1.425786   -0.078536   -0.021386    0.064665    0.745846
O    -2.278097   -1.196825    0.007566    0.004426   -0.029946   -0.346936
O     0.157551    2.653269   -0.236638    0.004916   -0.012314   -0.203999
H     2.072227   -1.429187    0.171588    0.004104   -0.000082    0.109680
H    -1.851276    1.210426   -0.119458   -0.025864    0.062692    0.730108
H     2.348276    1.034798   -0.021889   -0.003098    0.013433    0.151834
11
* Frequency(17)  813.8094
C     1.356850    0.578056    0.006168    0.014892   -0.040480   -0.453930
C     1.169549   -0.797834    0.068721   -0.000352    0.021947    0.339333
N     0.011749   -1.461333    0.144461    0.018524   -0.046156   -0.561787
C    -1.135365   -0.734615   -0.056343   -0.038546    0.108333    1.319288
N    -0.988001    0.677002   -0.060823    0.011518   -0.043499   -0.552873
C     0.199719    1.418335   -0.164469   -0.021386    0.064665    0.745846
O    -2.278607   -1.193375    0.047538    0.004426   -0.029946   -0.346936
O     0.156984    2.654687   -0.213134    0.004916   -0.012314   -0.203999
H     2.071754   -1.429177    0.158951    0.004104   -0.000082    0.109680
H    -1.848296    1.203203   -0.203579   -0.025864    0.062692    0.730108
H     2.348632    1.033251   -0.039383   -0.003098    0.013433    0.151834
11
* Frequency(17)  813.8094
C     1.355227    0.582468    0.055635    0.014892   -0.040480   -0.453930
C     1.169587   -0.800225    0.031742   -0.000352    0.021947    0.339333
N     0.009730   -1.456304    0.205681    0.018524   -0.046156   -0.561787
C    -1.131165   -0.746420   -0.200110   -0.038546    0.108333    1.319288
N    -0.989256    0.681742   -0.000574    0.011518   -0.043499   -0.552873
C     0.202049    1.411288   -0.245747   -0.021386    0.064665    0.745846
O    -2.279090   -1.190112    0.085345    0.004426   -0.029946   -0.346936
O     0.156449    2.656029   -0.190903    0.004916   -0.012314   -0.203999
H     2.071307   -1.429168    0.146999    0.004104   -0.000082    0.109680
H    -1.845477    1.196371   -0.283141   -0.025864    0.062692    0.730108
H     2.348970    1.031787   -0.055929   -0.003098    0.013433    0.151834
11
* Frequency(17)  813.8094
C     1.353873    0.586148    0.096907    0.014892   -0.040480   -0.453930
C     1.169619   -0.802221    0.000890   -0.000352    0.021947    0.339333
N     0.008046   -1.452107    0.256760    0.018524   -0.046156   -0.561787
C    -1.127660   -0.756270   -0.320062   -0.038546    0.108333    1.319288
N    -0.990303    0.685697    0.049694    0.011518   -0.043499   -0.552873
C     0.203994    1.405409   -0.313560   -0.021386    0.064665    0.745846
O    -2.279492   -1.187389    0.116889    0.004426   -0.029946   -0.346936
O     0.156002    2.657149   -0.172355    0.004916   -0.012314   -0.203999
H     2.070934   -1.429161    0.137026    0.004104   -0.000082    0.109680
H    -1.843125    1.190671   -0.349524   -0.025864    0.062692    0.730108
H     2.349252    1.030566   -0.069734   -0.003098    0.013433    0.151834
11
* Frequency(17)  813.8094
C     1.352934    0.588699    0.125512    0.014892   -0.040480   -0.453930
C     1.169642   -0.803604   -0.020494   -0.000352    0.021947    0.339333
N     0.006879   -1.449198    0.292162    0.018524   -0.046156   -0.561787
C    -1.125231   -0.763097   -0.403200   -0.038546    0.108333    1.319288
N    -0.991029    0.688439    0.084535    0.011518   -0.043499   -0.552873
C     0.205341    1.401334   -0.360562   -0.021386    0.064665    0.745846
O    -2.279771   -1.185502    0.138752    0.004426   -0.029946   -0.346936
O     0.155692    2.657925   -0.159500    0.004916   -0.012314   -0.203999
H     2.070675   -1.429156    0.130115    0.004104   -0.000082    0.109680
H    -1.841496    1.186720   -0.395533   -0.025864    0.062692    0.730108
H     2.349447    1.029719   -0.079302   -0.003098    0.013433    0.151834
11
* Frequency(17)  813.8094
C     1.352513    0.589844    0.138351    0.014892   -0.040480   -0.453930
C     1.169651   -0.804225   -0.030092   -0.000352    0.021947    0.339333
N     0.006355   -1.447893    0.308052    0.018524   -0.046156   -0.561787
C    -1.124141   -0.766161   -0.440515   -0.038546    0.108333    1.319288
N    -0.991355    0.689669    0.100172    0.011518   -0.043499   -0.552873
C     0.205946    1.399505   -0.381657   -0.021386    0.064665    0.745846
O    -2.279896   -1.184655    0.148565    0.004426   -0.029946   -0.346936
O     0.155553    2.658273   -0.153730    0.004916   -0.012314   -0.203999
H     2.070559   -1.429153    0.127013    0.004104   -0.000082    0.109680
H    -1.840764    1.184947   -0.416184   -0.025864    0.062692    0.730108
H     2.349535    1.029339   -0.083597   -0.003098    0.013433    0.151834
11
* Frequency(17)  813.8094
C     1.352655    0.589459    0.134032    0.014892   -0.040480   -0.453930
C     1.169648   -0.804016   -0.026863   -0.000352    0.021947    0.339333
N     0.006531   -1.448332    0.302707    0.018524   -0.046156   -0.561787
C    -1.124508   -0.765130   -0.427962   -0.038546    0.108333    1.319288
N    -0.991245    0.689255    0.094912    0.011518   -0.043499   -0.552873
C     0.205743    1.400120   -0.374561   -0.021386    0.064665    0.745846
O    -2.279854   -1.184940    0.145264    0.004426   -0.029946   -0.346936
O     0.155600    2.658156   -0.155671    0.004916   -0.012314   -0.203999
H     2.070598   -1.429154    0.128056    0.004104   -0.000082    0.109680
H    -1.841010    1.185544   -0.409237   -0.025864    0.062692    0.730108
H     2.349505    1.029467   -0.082152   -0.003098    0.013433    0.151834
11
* Frequency(17)  813.8094
C     1.353344    0.587585    0.113024    0.014892   -0.040480   -0.453930
C     1.169632   -0.803000   -0.011158   -0.000352    0.021947    0.339333
N     0.007388   -1.450468    0.276706    0.018524   -0.046156   -0.561787
C    -1.126292   -0.760116   -0.366903   -0.038546    0.108333    1.319288
N    -0.990712    0.687242    0.069324    0.011518   -0.043499   -0.552873
C     0.204753    1.403113   -0.340042   -0.021386    0.064665    0.745846
O    -2.279649   -1.186326    0.129207    0.004426   -0.029946   -0.346936
O     0.155827    2.657586   -0.165112    0.004916   -0.012314   -0.203999
H     2.070788   -1.429158    0.133132    0.004104   -0.000082    0.109680
H    -1.842207    1.188445   -0.375446   -0.025864    0.062692    0.730108
H     2.349362    1.030089   -0.075125   -0.003098    0.013433    0.151834
11
* Frequency(17)  813.8094
C     1.354506    0.584427    0.077602    0.014892   -0.040480   -0.453930
C     1.169604   -0.801287    0.015321   -0.000352    0.021947    0.339333
N     0.008834   -1.454070    0.232868    0.018524   -0.046156   -0.561787
C    -1.129299   -0.751663   -0.263954   -0.038546    0.108333    1.319288
N    -0.989813    0.683847    0.026181    0.011518   -0.043499   -0.552873
C     0.203084    1.408159   -0.281840   -0.021386    0.064665    0.745846
O    -2.279304   -1.188663    0.102134    0.004426   -0.029946   -0.346936
O     0.156211    2.656625   -0.181031    0.004916   -0.012314   -0.203999
H     2.071108   -1.429164    0.141691    0.004104   -0.000082    0.109680
H    -1.844225    1.193337   -0.318473   -0.025864    0.062692    0.730108
H     2.349120    1.031137   -0.063277   -0.003098    0.013433    0.151834
11
* Frequency(17)  813.8094
C     1.356015    0.580325    0.031605    0.014892   -0.040480   -0.453930
C     1.169569   -0.799064    0.049706   -0.000352    0.021947    0.339333
N     0.010711   -1.458747    0.175942    0.018524   -0.046156   -0.561787
C    -1.133205   -0.740686   -0.130271   -0.038546    0.108333    1.319288
N    -0.988646    0.679440   -0.029842    0.011518   -0.043499   -0.552873
C     0.200917    1.414711   -0.206264   -0.021386    0.064665    0.745846
O    -2.278855   -1.191697    0.066979    0.004426   -0.029946   -0.346936
O     0.156709    2.655377   -0.201702    0.004916   -0.012314   -0.203999
H     2.071524   -1.429173    0.152805    0.004104   -0.000082    0.109680
H    -1.846846    1.199690   -0.244491   -0.025864    0.062692    0.730108
H     2.348806    1.032498   -0.047891   -0.003098    0.013433    0.151834
11
* Frequency(17)  813.8094
C     1.357708    0.575724   -0.019982    0.014892   -0.040480   -0.453930
C     1.169529   -0.796569    0.088269   -0.000352    0.021947    0.339333
N     0.012816   -1.463992    0.112098    0.018524   -0.046156   -0.561787
C    -1.137586   -0.728374    0.019659   -0.038546    0.108333    1.319288
N    -0.987337    0.674496   -0.092673    0.011518   -0.043499   -0.552873
C     0.198487    1.422060   -0.121503   -0.021386    0.064665    0.745846
O    -2.278352   -1.195100    0.027552    0.004426   -0.029946   -0.346936
O     0.157268    2.653978   -0.224886    0.004916   -0.012314   -0.203999
H     2.071990   -1.429182    0.165269    0.004104   -0.000082    0.109680
H    -1.849786    1.206815   -0.161518   -0.025864    0.062692    0.730108
H     2.348454    1.034025   -0.030636   -0.003098    0.013433    0.151834
