11
* (null), Energy   -1000.0000000
C     1.591454    0.406609    0.009810   -0.249476   -0.243966    0.013493
C     1.402862   -0.965542    0.118363    0.077836   -0.206019    0.018775
N     0.246024   -1.632751    0.142050   -0.124341    0.719291   -0.063174
C    -0.904486   -0.897558    0.049520    0.096771   -0.015738    0.004069
N    -0.754011    0.505509   -0.063362    0.238414   -0.549595    0.052047
C     0.431975    1.252895   -0.092416   -0.113494    0.113393   -0.012717
O    -2.045071   -1.364389    0.057523    0.031064    0.035047   -0.002116
O     0.390516    2.484935   -0.194533    0.058656    0.233546   -0.017554
H     2.305441   -1.598210    0.195810   -0.244216   -0.664492    0.052423
H    -1.616489    1.037825   -0.130328   -0.301735   -1.441620    0.113595
H     2.582079    0.864994   -0.000426   -0.218759   -0.316804    0.019360
11
* Frequency(18)  967.0749
C     1.563103    0.378884    0.011344   -0.249476   -0.243966    0.013493
C     1.411708   -0.988955    0.120497    0.077836   -0.206019    0.018775
N     0.231893   -1.551007    0.134870   -0.124341    0.719291   -0.063174
C    -0.893489   -0.899347    0.049982    0.096771   -0.015738    0.004069
N    -0.726917    0.443051   -0.057447    0.238414   -0.549595    0.052047
C     0.419077    1.265782   -0.093861   -0.113494    0.113393   -0.012717
O    -2.041541   -1.360406    0.057283    0.031064    0.035047   -0.002116
O     0.397182    2.511476   -0.196528    0.058656    0.233546   -0.017554
H     2.277687   -1.673726    0.201768   -0.244216   -0.664492    0.052423
H    -1.650779    0.873992   -0.117418   -0.301735   -1.441620    0.113595
H     2.557218    0.828990    0.001774   -0.218759   -0.316804    0.019360
11
* Frequency(18)  967.0749
C     1.537823    0.354163    0.012711   -0.249476   -0.243966    0.013493
C     1.419595   -1.009831    0.122399    0.077836   -0.206019    0.018775
N     0.219294   -1.478121    0.128469   -0.124341    0.719291   -0.063174
C    -0.883683   -0.900942    0.050394    0.096771   -0.015738    0.004069
N    -0.702758    0.387360   -0.052173    0.238414   -0.549595    0.052047
C     0.407577    1.277272   -0.095150   -0.113494    0.113393   -0.012717
O    -2.038393   -1.356855    0.057068    0.031064    0.035047   -0.002116
O     0.403126    2.535141   -0.198307    0.058656    0.233546   -0.017554
H     2.252941   -1.741059    0.207079   -0.244216   -0.664492    0.052423
H    -1.681354    0.727913   -0.105908   -0.301735   -1.441620    0.113595
H     2.535052    0.796889    0.003736   -0.218759   -0.316804    0.019360
11
* Frequency(18)  967.0749
C     1.518356    0.335125    0.013764   -0.249476   -0.243966    0.013493
C     1.425668   -1.025907    0.123864    0.077836   -0.206019    0.018775
N     0.209591   -1.421992    0.123539   -0.124341    0.719291   -0.063174
C    -0.876132   -0.902170    0.050712    0.096771   -0.015738    0.004069
N    -0.684154    0.344473   -0.048112    0.238414   -0.549595    0.052047
C     0.398720    1.286120   -0.096142   -0.113494    0.113393   -0.012717
O    -2.035969   -1.354120    0.056903    0.031064    0.035047   -0.002116
O     0.407703    2.553366   -0.199676    0.058656    0.233546   -0.017554
H     2.233884   -1.792912    0.211170   -0.244216   -0.664492    0.052423
H    -1.704900    0.615418   -0.097044   -0.301735   -1.441620    0.113595
H     2.517981    0.772167    0.005247   -0.218759   -0.316804    0.019360
11
* Frequency(18)  967.0749
C     1.506810    0.323834    0.014389   -0.249476   -0.243966    0.013493
C     1.429271   -1.035442    0.124733    0.077836   -0.206019    0.018775
N     0.203836   -1.388702    0.120615   -0.124341    0.719291   -0.063174
C    -0.871653   -0.902898    0.050900    0.096771   -0.015738    0.004069
N    -0.673120    0.319037   -0.045703    0.238414   -0.549595    0.052047
C     0.393468    1.291368   -0.096731   -0.113494    0.113393   -0.012717
O    -2.034531   -1.352498    0.056805    0.031064    0.035047   -0.002116
O     0.410418    2.564175   -0.200489    0.058656    0.233546   -0.017554
H     2.222581   -1.823665    0.213596   -0.244216   -0.664492    0.052423
H    -1.718864    0.548698   -0.091786   -0.301735   -1.441620    0.113595
H     2.507856    0.757505    0.006143   -0.218759   -0.316804    0.019360
11
* Frequency(18)  967.0749
C     1.504436    0.321513    0.014517   -0.249476   -0.243966    0.013493
C     1.430011   -1.037402    0.124912    0.077836   -0.206019    0.018775
N     0.202653   -1.381859    0.120014   -0.124341    0.719291   -0.063174
C    -0.870732   -0.903048    0.050939    0.096771   -0.015738    0.004069
N    -0.670851    0.313808   -0.045208    0.238414   -0.549595    0.052047
C     0.392388    1.292447   -0.096852   -0.113494    0.113393   -0.012717
O    -2.034235   -1.352165    0.056785    0.031064    0.035047   -0.002116
O     0.410976    2.566397   -0.200656    0.058656    0.233546   -0.017554
H     2.220257   -1.829988    0.214095   -0.244216   -0.664492    0.052423
H    -1.721735    0.534981   -0.090705   -0.301735   -1.441620    0.113595
H     2.505775    0.754491    0.006327   -0.218759   -0.316804    0.019360
11
* Frequency(18)  967.0749
C     1.511492    0.328413    0.014135   -0.249476   -0.243966    0.013493
C     1.427810   -1.031575    0.124381    0.077836   -0.206019    0.018775
N     0.206170   -1.402203    0.121801   -0.124341    0.719291   -0.063174
C    -0.873469   -0.902603    0.050824    0.096771   -0.015738    0.004069
N    -0.677595    0.329353   -0.046680    0.238414   -0.549595    0.052047
C     0.395598    1.289240   -0.096492   -0.113494    0.113393   -0.012717
O    -2.035114   -1.353156    0.056845    0.031064    0.035047   -0.002116
O     0.409317    2.559791   -0.200159    0.058656    0.233546   -0.017554
H     2.227165   -1.811193    0.212612   -0.244216   -0.664492    0.052423
H    -1.713201    0.575756   -0.093918   -0.301735   -1.441620    0.113595
H     2.511962    0.763451    0.005779   -0.218759   -0.316804    0.019360
11
* Frequency(18)  967.0749
C     1.527213    0.343787    0.013285   -0.249476   -0.243966    0.013493
C     1.422905   -1.018592    0.123198    0.077836   -0.206019    0.018775
N     0.214006   -1.447531    0.125782   -0.124341    0.719291   -0.063174
C    -0.879568   -0.901611    0.050567    0.096771   -0.015738    0.004069
N    -0.692619    0.363987   -0.049960    0.238414   -0.549595    0.052047
C     0.402750    1.282094   -0.095691   -0.113494    0.113393   -0.012717
O    -2.037072   -1.355364    0.056978    0.031064    0.035047   -0.002116
O     0.405620    2.545074   -0.199053    0.058656    0.233546   -0.017554
H     2.242554   -1.769319    0.209309   -0.244216   -0.664492    0.052423
H    -1.694187    0.666603   -0.101077   -0.301735   -1.441620    0.113595
H     2.525748    0.783415    0.004559   -0.218759   -0.316804    0.019360
11
* Frequency(18)  967.0749
C     1.549896    0.365969    0.012058   -0.249476   -0.243966    0.013493
C     1.415828   -0.999861    0.121491    0.077836   -0.206019    0.018775
N     0.225311   -1.512930    0.131526   -0.124341    0.719291   -0.063174
C    -0.888366   -0.900180    0.050197    0.096771   -0.015738    0.004069
N    -0.714296    0.413957   -0.054692    0.238414   -0.549595    0.052047
C     0.413069    1.271784   -0.094534   -0.113494    0.113393   -0.012717
O    -2.039896   -1.358551    0.057171    0.031064    0.035047   -0.002116
O     0.400287    2.523839   -0.197457    0.058656    0.233546   -0.017554
H     2.264759   -1.708902    0.204543   -0.244216   -0.664492    0.052423
H    -1.666752    0.797678   -0.111405   -0.301735   -1.441620    0.113595
H     2.545638    0.812220    0.002799   -0.218759   -0.316804    0.019360
11
* Frequency(18)  967.0749
C     1.577082    0.392555    0.010588   -0.249476   -0.243966    0.013493
C     1.407346   -0.977410    0.119445    0.077836   -0.206019    0.018775
N     0.238861   -1.591314    0.138410   -0.124341    0.719291   -0.063174
C    -0.898912   -0.898465    0.049754    0.096771   -0.015738    0.004069
N    -0.740277    0.473848   -0.060363    0.238414   -0.549595    0.052047
C     0.425437    1.259428   -0.093149   -0.113494    0.113393   -0.012717
O    -2.043281   -1.362370    0.057401    0.031064    0.035047   -0.002116
O     0.393895    2.498389   -0.195544    0.058656    0.233546   -0.017554
H     2.291372   -1.636490    0.198830   -0.244216   -0.664492    0.052423
H    -1.633871    0.954776   -0.123784   -0.301735   -1.441620    0.113595
H     2.569477    0.846743    0.000689   -0.218759   -0.316804    0.019360
11
* Frequency(18)  967.0749
C     1.605826    0.420664    0.009033   -0.249476   -0.243966    0.013493
C     1.398378   -0.953673    0.117282    0.077836   -0.206019    0.018775
N     0.253187   -1.674188    0.145689   -0.124341    0.719291   -0.063174
C    -0.910061   -0.896652    0.049285    0.096771   -0.015738    0.004069
N    -0.767746    0.537170   -0.066360    0.238414   -0.549595    0.052047
C     0.438513    1.246363   -0.091683   -0.113494    0.113393   -0.012717
O    -2.046860   -1.366408    0.057645    0.031064    0.035047   -0.002116
O     0.387137    2.471481   -0.193522    0.058656    0.233546   -0.017554
H     2.319510   -1.559930    0.192790   -0.244216   -0.664492    0.052423
H    -1.599107    1.120874   -0.136872   -0.301735   -1.441620    0.113595
H     2.594682    0.883244   -0.001541   -0.218759   -0.316804    0.019360
11
* Frequency(18)  967.0749
C     1.633012    0.447250    0.007563   -0.249476   -0.243966    0.013493
C     1.389896   -0.931223    0.115236    0.077836   -0.206019    0.018775
N     0.266737   -1.752571    0.152573   -0.124341    0.719291   -0.063174
C    -0.920607   -0.894937    0.048842    0.096771   -0.015738    0.004069
N    -0.793727    0.597062   -0.072032    0.238414   -0.549595    0.052047
C     0.450881    1.234006   -0.090298   -0.113494    0.113393   -0.012717
O    -2.050245   -1.370227    0.057875    0.031064    0.035047   -0.002116
O     0.380745    2.446030   -0.191609    0.058656    0.233546   -0.017554
H     2.346123   -1.487518    0.187077   -0.244216   -0.664492    0.052423
H    -1.566225    1.277972   -0.149251   -0.301735   -1.441620    0.113595
H     2.618521    0.917767   -0.003651   -0.218759   -0.316804    0.019360
11
* Frequency(18)  967.0749
C     1.655695    0.469431    0.006336   -0.249476   -0.243966    0.013493
C     1.382819   -0.912491    0.113529    0.077836   -0.206019    0.018775
N     0.278042   -1.817970    0.158317   -0.124341    0.719291   -0.063174
C    -0.929405   -0.893506    0.048472    0.096771   -0.015738    0.004069
N    -0.815403    0.647032   -0.076764    0.238414   -0.549595    0.052047
C     0.461200    1.223696   -0.089141   -0.113494    0.113393   -0.012717
O    -2.053070   -1.373414    0.058068    0.031064    0.035047   -0.002116
O     0.375412    2.424796   -0.190013    0.058656    0.233546   -0.017554
H     2.368328   -1.427101    0.182311   -0.244216   -0.664492    0.052423
H    -1.538791    1.409047   -0.159579   -0.301735   -1.441620    0.113595
H     2.638411    0.946572   -0.005411   -0.218759   -0.316804    0.019360
11
* Frequency(18)  967.0749
C     1.671417    0.484806    0.005486   -0.249476   -0.243966    0.013493
C     1.377914   -0.899508    0.112346    0.077836   -0.206019    0.018775
N     0.285878   -1.863298    0.162298   -0.124341    0.719291   -0.063174
C    -0.935504   -0.892514    0.048215    0.096771   -0.015738    0.004069
N    -0.830428    0.681666   -0.080044    0.238414   -0.549595    0.052047
C     0.468352    1.216550   -0.088340   -0.113494    0.113393   -0.012717
O    -2.055027   -1.375622    0.058201    0.031064    0.035047   -0.002116
O     0.371716    2.410079   -0.188907    0.058656    0.233546   -0.017554
H     2.383717   -1.385227    0.179007   -0.244216   -0.664492    0.052423
H    -1.519777    1.499894   -0.166737   -0.301735   -1.441620    0.113595
H     2.652196    0.966536   -0.006631   -0.218759   -0.316804    0.019360
11
* Frequency(18)  967.0749
C     1.678473    0.491706    0.005104   -0.249476   -0.243966    0.013493
C     1.375713   -0.893681    0.111815    0.077836   -0.206019    0.018775
N     0.289394   -1.883643    0.164085   -0.124341    0.719291   -0.063174
C    -0.938241   -0.892069    0.048100    0.096771   -0.015738    0.004069
N    -0.837171    0.697210   -0.081516    0.238414   -0.549595    0.052047
C     0.471562    1.213343   -0.087980   -0.113494    0.113393   -0.012717
O    -2.055906   -1.376613    0.058261    0.031064    0.035047   -0.002116
O     0.370056    2.403473   -0.188410    0.058656    0.233546   -0.017554
H     2.390625   -1.366432    0.177525   -0.244216   -0.664492    0.052423
H    -1.511242    1.540668   -0.169950   -0.301735   -1.441620    0.113595
H     2.658384    0.975496   -0.007179   -0.218759   -0.316804    0.019360
11
* Frequency(18)  967.0749
C     1.676099    0.489385    0.005232   -0.249476   -0.243966    0.013493
C     1.376453   -0.895642    0.111993    0.077836   -0.206019    0.018775
N     0.288211   -1.876799    0.163484   -0.124341    0.719291   -0.063174
C    -0.937320   -0.892218    0.048139    0.096771   -0.015738    0.004069
N    -0.834903    0.691981   -0.081021    0.238414   -0.549595    0.052047
C     0.470483    1.214422   -0.088101   -0.113494    0.113393   -0.012717
O    -2.055611   -1.376280    0.058241    0.031064    0.035047   -0.002116
O     0.370615    2.405695   -0.188577    0.058656    0.233546   -0.017554
H     2.388301   -1.372755    0.178024   -0.244216   -0.664492    0.052423
H    -1.514113    1.526952   -0.168869   -0.301735   -1.441620    0.113595
H     2.656302    0.972482   -0.006995   -0.218759   -0.316804    0.019360
11
* Frequency(18)  967.0749
C     1.664553    0.478093    0.005857   -0.249476   -0.243966    0.013493
C     1.380056   -0.905177    0.112862    0.077836   -0.206019    0.018775
N     0.282457   -1.843509    0.160560   -0.124341    0.719291   -0.063174
C    -0.932841   -0.892947    0.048327    0.096771   -0.015738    0.004069
N    -0.823868    0.666545   -0.078612    0.238414   -0.549595    0.052047
C     0.465230    1.219670   -0.088690   -0.113494    0.113393   -0.012717
O    -2.054173   -1.374658    0.058143    0.031064    0.035047   -0.002116
O     0.373329    2.416504   -0.189390    0.058656    0.233546   -0.017554
H     2.376998   -1.403508    0.180450   -0.244216   -0.664492    0.052423
H    -1.528078    1.460231   -0.163612   -0.301735   -1.441620    0.113595
H     2.646178    0.957820   -0.006099   -0.218759   -0.316804    0.019360
11
* Frequency(18)  967.0749
C     1.645085    0.459056    0.006910   -0.249476   -0.243966    0.013493
C     1.386129   -0.921253    0.114327    0.077836   -0.206019    0.018775
N     0.272754   -1.787380    0.155631   -0.124341    0.719291   -0.063174
C    -0.925290   -0.894175    0.048645    0.096771   -0.015738    0.004069
N    -0.805264    0.623658   -0.074551    0.238414   -0.549595    0.052047
C     0.456373    1.228519   -0.089682   -0.113494    0.113393   -0.012717
O    -2.051749   -1.371923    0.057978    0.031064    0.035047   -0.002116
O     0.377906    2.434728   -0.190759    0.058656    0.233546   -0.017554
H     2.357941   -1.455361    0.184540   -0.244216   -0.664492    0.052423
H    -1.551624    1.347736   -0.154748   -0.301735   -1.441620    0.113595
H     2.629107    0.933098   -0.004588   -0.218759   -0.316804    0.019360
11
* Frequency(18)  967.0749
C     1.619806    0.434335    0.008277   -0.249476   -0.243966    0.013493
C     1.394016   -0.942129    0.116230    0.077836   -0.206019    0.018775
N     0.260155   -1.714494    0.149229   -0.124341    0.719291   -0.063174
C    -0.915484   -0.895770    0.049057    0.096771   -0.015738    0.004069
N    -0.781106    0.567968   -0.069277    0.238414   -0.549595    0.052047
C     0.444873    1.240009   -0.090971   -0.113494    0.113393   -0.012717
O    -2.048601   -1.368372    0.057763    0.031064    0.035047   -0.002116
O     0.383850    2.458394   -0.192538    0.058656    0.233546   -0.017554
H     2.333195   -1.522694    0.189852   -0.244216   -0.664492    0.052423
H    -1.582198    1.201657   -0.143237   -0.301735   -1.441620    0.113595
H     2.606940    0.900997   -0.002626   -0.218759   -0.316804    0.019360
11
* Frequency(18)  967.0749
C     1.591454    0.406609    0.009810   -0.249476   -0.243966    0.013493
C     1.402862   -0.965542    0.118363    0.077836   -0.206019    0.018775
N     0.246024   -1.632751    0.142050   -0.124341    0.719291   -0.063174
C    -0.904486   -0.897558    0.049520    0.096771   -0.015738    0.004069
N    -0.754011    0.505509   -0.063362    0.238414   -0.549595    0.052047
C     0.431975    1.252895   -0.092416   -0.113494    0.113393   -0.012717
O    -2.045071   -1.364389    0.057523    0.031064    0.035047   -0.002116
O     0.390516    2.484935   -0.194533    0.058656    0.233546   -0.017554
H     2.305441   -1.598210    0.195810   -0.244216   -0.664492    0.052423
H    -1.616489    1.037825   -0.130328   -0.301735   -1.441620    0.113595
H     2.582079    0.864994   -0.000426   -0.218759   -0.316804    0.019360
