11
* (null), Energy   -1000.0000000
C     1.591454    0.406609    0.009810    0.007744   -0.023147   -0.280738
C     1.402862   -0.965542    0.118363   -0.000234    0.000765    0.007829
N     0.246024   -1.632751    0.142050   -0.006543    0.019923    0.238746
C    -0.904486   -0.897558    0.049520   -0.004486    0.012383    0.152612
N    -0.754011    0.505509   -0.063362   -0.032529    0.097635    1.175726
C     0.431975    1.252895   -0.092416   -0.002176    0.007184    0.084776
O    -2.045071   -1.364389    0.057523    0.020356   -0.064026   -0.759349
O     0.390516    2.484935   -0.194533    0.013220   -0.036847   -0.452597
H     2.305441   -1.598210    0.195810    0.002343   -0.006896   -0.084918
H    -1.616489    1.037825   -0.130328   -0.026318    0.078859    0.946756
H     2.582079    0.864994   -0.000426    0.023883   -0.070936   -0.857807
11
* Frequency(6)  156.7781
C     1.592334    0.403979   -0.022094    0.007744   -0.023147   -0.280738
C     1.402835   -0.965455    0.119253   -0.000234    0.000765    0.007829
N     0.245280   -1.630486    0.169182   -0.006543    0.019923    0.238746
C    -0.904996   -0.896151    0.066863   -0.004486    0.012383    0.152612
N    -0.757708    0.516605    0.070253   -0.032529    0.097635    1.175726
C     0.431728    1.253712   -0.082782   -0.002176    0.007184    0.084776
O    -2.042757   -1.371665   -0.028773    0.020356   -0.064026   -0.759349
O     0.392018    2.480747   -0.245968    0.013220   -0.036847   -0.452597
H     2.305707   -1.598994    0.186160    0.002343   -0.006896   -0.084918
H    -1.619480    1.046787   -0.022734   -0.026318    0.078859    0.946756
H     2.584793    0.856932   -0.097911    0.023883   -0.070936   -0.857807
11
* Frequency(6)  156.7781
C     1.593119    0.401633   -0.050541    0.007744   -0.023147   -0.280738
C     1.402812   -0.965377    0.120046   -0.000234    0.000765    0.007829
N     0.244617   -1.628468    0.193374   -0.006543    0.019923    0.238746
C    -0.905451   -0.894896    0.082327   -0.004486    0.012383    0.152612
N    -0.761004    0.526498    0.189389   -0.032529    0.097635    1.175726
C     0.431507    1.254440   -0.074191   -0.002176    0.007184    0.084776
O    -2.040695   -1.378153   -0.105718    0.020356   -0.064026   -0.759349
O     0.393358    2.477014   -0.291830    0.013220   -0.036847   -0.452597
H     2.305945   -1.599693    0.177555    0.002343   -0.006896   -0.084918
H    -1.622147    1.054777    0.073201   -0.026318    0.078859    0.946756
H     2.587214    0.849744   -0.184832    0.023883   -0.070936   -0.857807
11
* Frequency(6)  156.7781
C     1.593723    0.399827   -0.072448    0.007744   -0.023147   -0.280738
C     1.402794   -0.965318    0.120657   -0.000234    0.000765    0.007829
N     0.244107   -1.626913    0.212004   -0.006543    0.019923    0.238746
C    -0.905801   -0.893930    0.094236   -0.004486    0.012383    0.152612
N    -0.763542    0.534117    0.281136   -0.032529    0.097635    1.175726
C     0.431338    1.255000   -0.067576   -0.002176    0.007184    0.084776
O    -2.039106   -1.383149   -0.164973    0.020356   -0.064026   -0.759349
O     0.394390    2.474138   -0.327148    0.013220   -0.036847   -0.452597
H     2.306128   -1.600231    0.170928    0.002343   -0.006896   -0.084918
H    -1.624200    1.060931    0.147080   -0.026318    0.078859    0.946756
H     2.589077    0.844209   -0.251770    0.023883   -0.070936   -0.857807
11
* Frequency(6)  156.7781
C     1.594082    0.398756   -0.085441    0.007744   -0.023147   -0.280738
C     1.402783   -0.965282    0.121020   -0.000234    0.000765    0.007829
N     0.243804   -1.625991    0.223054   -0.006543    0.019923    0.238746
C    -0.906009   -0.893357    0.101299   -0.004486    0.012383    0.152612
N    -0.765048    0.538636    0.335551   -0.032529    0.097635    1.175726
C     0.431237    1.255333   -0.063652   -0.002176    0.007184    0.084776
O    -2.038164   -1.386113   -0.200117    0.020356   -0.064026   -0.759349
O     0.395001    2.472433   -0.348095    0.013220   -0.036847   -0.452597
H     2.306236   -1.600550    0.166998    0.002343   -0.006896   -0.084918
H    -1.625418    1.064581    0.190897   -0.026318    0.078859    0.946756
H     2.590183    0.840926   -0.291471    0.023883   -0.070936   -0.857807
11
* Frequency(6)  156.7781
C     1.594155    0.398536   -0.088112    0.007744   -0.023147   -0.280738
C     1.402780   -0.965275    0.121094   -0.000234    0.000765    0.007829
N     0.243742   -1.625801    0.225325   -0.006543    0.019923    0.238746
C    -0.906051   -0.893239    0.102751   -0.004486    0.012383    0.152612
N    -0.765357    0.539565    0.346737   -0.032529    0.097635    1.175726
C     0.431216    1.255401   -0.062846   -0.002176    0.007184    0.084776
O    -2.037970   -1.386722   -0.207341    0.020356   -0.064026   -0.759349
O     0.395127    2.472082   -0.352401    0.013220   -0.036847   -0.452597
H     2.306258   -1.600616    0.166190    0.002343   -0.006896   -0.084918
H    -1.625669    1.065331    0.199905   -0.026318    0.078859    0.946756
H     2.590410    0.840251   -0.299633    0.023883   -0.070936   -0.857807
11
* Frequency(6)  156.7781
C     1.593936    0.399190   -0.080172    0.007744   -0.023147   -0.280738
C     1.402787   -0.965296    0.120873   -0.000234    0.000765    0.007829
N     0.243927   -1.626365    0.218573   -0.006543    0.019923    0.238746
C    -0.905924   -0.893589    0.098435   -0.004486    0.012383    0.152612
N    -0.764437    0.536803    0.313483   -0.032529    0.097635    1.175726
C     0.431278    1.255198   -0.065244   -0.002176    0.007184    0.084776
O    -2.038546   -1.384911   -0.185864    0.020356   -0.064026   -0.759349
O     0.394753    2.473125   -0.339600    0.013220   -0.036847   -0.452597
H     2.306192   -1.600420    0.168592    0.002343   -0.006896   -0.084918
H    -1.624924    1.063101    0.173127   -0.026318    0.078859    0.946756
H     2.589734    0.842257   -0.275371    0.023883   -0.070936   -0.857807
11
* Frequency(6)  156.7781
C     1.593448    0.400649   -0.062481    0.007744   -0.023147   -0.280738
C     1.402802   -0.965345    0.120379   -0.000234    0.000765    0.007829
N     0.244339   -1.627620    0.203528   -0.006543    0.019923    0.238746
C    -0.905642   -0.894370    0.088818   -0.004486    0.012383    0.152612
N    -0.762388    0.530651    0.239392   -0.032529    0.097635    1.175726
C     0.431415    1.254745   -0.070586   -0.002176    0.007184    0.084776
O    -2.039829   -1.380876   -0.138012    0.020356   -0.064026   -0.759349
O     0.393920    2.475447   -0.311078    0.013220   -0.036847   -0.452597
H     2.306044   -1.599986    0.173943    0.002343   -0.006896   -0.084918
H    -1.623266    1.058131    0.113465   -0.026318    0.078859    0.946756
H     2.588229    0.846727   -0.221314    0.023883   -0.070936   -0.857807
11
* Frequency(6)  156.7781
C     1.592744    0.402753   -0.036955    0.007744   -0.023147   -0.280738
C     1.402823   -0.965414    0.119667   -0.000234    0.000765    0.007829
N     0.244934   -1.629432    0.181820   -0.006543    0.019923    0.238746
C    -0.905234   -0.895495    0.074942   -0.004486    0.012383    0.152612
N    -0.759430    0.521773    0.132493   -0.032529    0.097635    1.175726
C     0.431613    1.254092   -0.078294   -0.002176    0.007184    0.084776
O    -2.041680   -1.375055   -0.068971    0.020356   -0.064026   -0.759349
O     0.392718    2.478797   -0.269927    0.013220   -0.036847   -0.452597
H     2.305831   -1.599359    0.181664    0.002343   -0.006896   -0.084918
H    -1.620873    1.050961    0.027384   -0.026318    0.078859    0.946756
H     2.586058    0.853177   -0.143321    0.023883   -0.070936   -0.857807
11
* Frequency(6)  156.7781
C     1.591900    0.405276   -0.006362    0.007744   -0.023147   -0.280738
C     1.402849   -0.965498    0.118814   -0.000234    0.000765    0.007829
N     0.245647   -1.631603    0.155803   -0.006543    0.019923    0.238746
C    -0.904745   -0.896845    0.058311   -0.004486    0.012383    0.152612
N    -0.755885    0.511134    0.004370   -0.032529    0.097635    1.175726
C     0.431850    1.253309   -0.087532   -0.002176    0.007184    0.084776
O    -2.043898   -1.368077    0.013778    0.020356   -0.064026   -0.759349
O     0.391278    2.482812   -0.220606    0.013220   -0.036847   -0.452597
H     2.305576   -1.598607    0.190918    0.002343   -0.006896   -0.084918
H    -1.618005    1.042368   -0.075787   -0.026318    0.078859    0.946756
H     2.583455    0.860907   -0.049843    0.023883   -0.070936   -0.857807
11
* Frequency(6)  156.7781
C     1.591008    0.407943    0.025983    0.007744   -0.023147   -0.280738
C     1.402875   -0.965586    0.117912   -0.000234    0.000765    0.007829
N     0.246401   -1.633898    0.128296   -0.006543    0.019923    0.238746
C    -0.904228   -0.898272    0.040728   -0.004486    0.012383    0.152612
N    -0.752137    0.499885   -0.131093   -0.032529    0.097635    1.175726
C     0.432100    1.252481   -0.097300   -0.002176    0.007184    0.084776
O    -2.046243   -1.360701    0.101268    0.020356   -0.064026   -0.759349
O     0.389755    2.487057   -0.168460    0.013220   -0.036847   -0.452597
H     2.305306   -1.597813    0.200702    0.002343   -0.006896   -0.084918
H    -1.614973    1.033282   -0.184869   -0.026318    0.078859    0.946756
H     2.580703    0.869080    0.048991    0.023883   -0.070936   -0.857807
11
* Frequency(6)  156.7781
C     1.590164    0.410465    0.056576    0.007744   -0.023147   -0.280738
C     1.402901   -0.965669    0.117059   -0.000234    0.000765    0.007829
N     0.247114   -1.636069    0.102279   -0.006543    0.019923    0.238746
C    -0.903739   -0.899621    0.024097   -0.004486    0.012383    0.152612
N    -0.748592    0.489245   -0.259216   -0.032529    0.097635    1.175726
C     0.432338    1.251698   -0.106538   -0.002176    0.007184    0.084776
O    -2.048462   -1.353723    0.184017    0.020356   -0.064026   -0.759349
O     0.388314    2.491073   -0.119139    0.013220   -0.036847   -0.452597
H     2.305051   -1.597061    0.209956    0.002343   -0.006896   -0.084918
H    -1.612105    1.024688   -0.288040   -0.026318    0.078859    0.946756
H     2.578101    0.876810    0.142469    0.023883   -0.070936   -0.857807
11
* Frequency(6)  156.7781
C     1.589460    0.412570    0.082102    0.007744   -0.023147   -0.280738
C     1.402922   -0.965739    0.116347   -0.000234    0.000765    0.007829
N     0.247709   -1.637881    0.080572   -0.006543    0.019923    0.238746
C    -0.903331   -0.900747    0.010221   -0.004486    0.012383    0.152612
N    -0.745635    0.480368   -0.366115   -0.032529    0.097635    1.175726
C     0.432535    1.251045   -0.114246   -0.002176    0.007184    0.084776
O    -2.050313   -1.347902    0.253058    0.020356   -0.064026   -0.759349
O     0.387112    2.494423   -0.077988    0.013220   -0.036847   -0.452597
H     2.304838   -1.596434    0.217677    0.002343   -0.006896   -0.084918
H    -1.609712    1.017518   -0.374121   -0.026318    0.078859    0.946756
H     2.575929    0.883260    0.220462    0.023883   -0.070936   -0.857807
11
* Frequency(6)  156.7781
C     1.588972    0.414028    0.099793    0.007744   -0.023147   -0.280738
C     1.402937   -0.965787    0.115854   -0.000234    0.000765    0.007829
N     0.248121   -1.639136    0.065527   -0.006543    0.019923    0.238746
C    -0.903049   -0.901527    0.000604   -0.004486    0.012383    0.152612
N    -0.743585    0.474215   -0.440206   -0.032529    0.097635    1.175726
C     0.432673    1.250593   -0.119588   -0.002176    0.007184    0.084776
O    -2.051595   -1.343867    0.300910    0.020356   -0.064026   -0.759349
O     0.386279    2.496745   -0.049466    0.013220   -0.036847   -0.452597
H     2.304690   -1.596000    0.223028    0.002343   -0.006896   -0.084918
H    -1.608053    1.012549   -0.433783   -0.026318    0.078859    0.946756
H     2.574424    0.887730    0.274519    0.023883   -0.070936   -0.857807
11
* Frequency(6)  156.7781
C     1.588753    0.414683    0.107733    0.007744   -0.023147   -0.280738
C     1.402943   -0.965809    0.115633   -0.000234    0.000765    0.007829
N     0.248306   -1.639700    0.058774   -0.006543    0.019923    0.238746
C    -0.902922   -0.901878   -0.003712   -0.004486    0.012383    0.152612
N    -0.742665    0.471454   -0.473461   -0.032529    0.097635    1.175726
C     0.432734    1.250389   -0.121986   -0.002176    0.007184    0.084776
O    -2.052171   -1.342056    0.322387    0.020356   -0.064026   -0.759349
O     0.385905    2.497787   -0.036665    0.013220   -0.036847   -0.452597
H     2.304624   -1.595804    0.225430    0.002343   -0.006896   -0.084918
H    -1.607309    1.010319   -0.460561   -0.026318    0.078859    0.946756
H     2.573749    0.889737    0.298781    0.023883   -0.070936   -0.857807
11
* Frequency(6)  156.7781
C     1.588827    0.414463    0.105062    0.007744   -0.023147   -0.280738
C     1.402941   -0.965801    0.115707   -0.000234    0.000765    0.007829
N     0.248244   -1.639510    0.061046   -0.006543    0.019923    0.238746
C    -0.902964   -0.901760   -0.002260   -0.004486    0.012383    0.152612
N    -0.742974    0.472382   -0.462274   -0.032529    0.097635    1.175726
C     0.432713    1.250458   -0.121180   -0.002176    0.007184    0.084776
O    -2.051978   -1.342665    0.315163    0.020356   -0.064026   -0.759349
O     0.386031    2.497437   -0.040971    0.013220   -0.036847   -0.452597
H     2.304646   -1.595870    0.224622    0.002343   -0.006896   -0.084918
H    -1.607559    1.011069   -0.451553   -0.026318    0.078859    0.946756
H     2.573976    0.889062    0.290619    0.023883   -0.070936   -0.857807
11
* Frequency(6)  156.7781
C     1.589185    0.413391    0.092069    0.007744   -0.023147   -0.280738
C     1.402930   -0.965766    0.116069   -0.000234    0.000765    0.007829
N     0.247941   -1.638588    0.072095   -0.006543    0.019923    0.238746
C    -0.903172   -0.901187    0.004803   -0.004486    0.012383    0.152612
N    -0.744480    0.476901   -0.407859   -0.032529    0.097635    1.175726
C     0.432613    1.250790   -0.117256   -0.002176    0.007184    0.084776
O    -2.051035   -1.345629    0.280018    0.020356   -0.064026   -0.759349
O     0.386643    2.495731   -0.061918    0.013220   -0.036847   -0.452597
H     2.304754   -1.596189    0.220692    0.002343   -0.006896   -0.084918
H    -1.608777    1.014719   -0.407735   -0.026318    0.078859    0.946756
H     2.575081    0.885779    0.250919    0.023883   -0.070936   -0.857807
11
* Frequency(6)  156.7781
C     1.589790    0.411585    0.070162    0.007744   -0.023147   -0.280738
C     1.402912   -0.965706    0.116680   -0.000234    0.000765    0.007829
N     0.247430   -1.637033    0.090725   -0.006543    0.019923    0.238746
C    -0.903522   -0.900220    0.016712   -0.004486    0.012383    0.152612
N    -0.747018    0.484520   -0.316113   -0.032529    0.097635    1.175726
C     0.432443    1.251351   -0.110641   -0.002176    0.007184    0.084776
O    -2.049447   -1.350625    0.220764    0.020356   -0.064026   -0.759349
O     0.387674    2.492856   -0.097236    0.013220   -0.036847   -0.452597
H     2.304937   -1.596727    0.214065    0.002343   -0.006896   -0.084918
H    -1.610831    1.020872   -0.333856   -0.026318    0.078859    0.946756
H     2.576945    0.880243    0.183981    0.023883   -0.070936   -0.857807
11
* Frequency(6)  156.7781
C     1.590574    0.409240    0.041715    0.007744   -0.023147   -0.280738
C     1.402889   -0.965629    0.117474   -0.000234    0.000765    0.007829
N     0.246767   -1.635015    0.114917   -0.006543    0.019923    0.238746
C    -0.903977   -0.898966    0.032176   -0.004486    0.012383    0.152612
N    -0.750314    0.494413   -0.196977   -0.032529    0.097635    1.175726
C     0.432222    1.252079   -0.102050   -0.002176    0.007184    0.084776
O    -2.047384   -1.357113    0.143819    0.020356   -0.064026   -0.759349
O     0.389014    2.489122   -0.143098    0.013220   -0.036847   -0.452597
H     2.305175   -1.597426    0.205460    0.002343   -0.006896   -0.084918
H    -1.613498    1.028863   -0.237922   -0.026318    0.078859    0.946756
H     2.579365    0.873055    0.097059    0.023883   -0.070936   -0.857807
11
* Frequency(6)  156.7781
C     1.591454    0.406609    0.009810    0.007744   -0.023147   -0.280738
C     1.402862   -0.965542    0.118363   -0.000234    0.000765    0.007829
N     0.246024   -1.632751    0.142050   -0.006543    0.019923    0.238746
C    -0.904486   -0.897558    0.049520   -0.004486    0.012383    0.152612
N    -0.754011    0.505509   -0.063362   -0.032529    0.097635    1.175726
C     0.431975    1.252895   -0.092416   -0.002176    0.007184    0.084776
O    -2.045071   -1.364389    0.057523    0.020356   -0.064026   -0.759349
O     0.390516    2.484935   -0.194533    0.013220   -0.036847   -0.452597
H     2.305441   -1.598210    0.195810    0.002343   -0.006896   -0.084918
H    -1.616489    1.037825   -0.130328   -0.026318    0.078859    0.946756
H     2.582079    0.864994   -0.000426    0.023883   -0.070936   -0.857807
