11
* (null), Energy   -1000.0000000
C     1.591454    0.406609    0.009810    0.103401   -0.242280    0.022836
C     1.402862   -0.965542    0.118363   -0.031811    0.049557   -0.004968
N     0.246024   -1.632751    0.142050   -0.068339   -0.008145   -0.001089
C    -0.904486   -0.897558    0.049520    0.698790    0.264524   -0.003245
N    -0.754011    0.505509   -0.063362   -0.132584   -0.251412    0.017221
C     0.431975    1.252895   -0.092416   -0.125331    0.997240   -0.085328
O    -2.045071   -1.364389    0.057523   -0.371248   -0.148150    0.002300
O     0.390516    2.484935   -0.194533    0.034478   -0.525475    0.044030
H     2.305441   -1.598210    0.195810   -0.067339    0.046291   -0.005745
H    -1.616489    1.037825   -0.130328    0.672082    1.066295   -0.070021
H     2.582079    0.864994   -0.000426   -0.153711    0.447610   -0.041254
11
* Frequency(28) 1749.1399
C     1.603205    0.379075    0.012406    0.103401   -0.242280    0.022836
C     1.399247   -0.959910    0.117799   -0.031811    0.049557   -0.004968
N     0.238257   -1.633676    0.141926   -0.068339   -0.008145   -0.001089
C    -0.825073   -0.867496    0.049151    0.698790    0.264524   -0.003245
N    -0.769079    0.476938   -0.061405   -0.132584   -0.251412    0.017221
C     0.417732    1.366226   -0.102113   -0.125331    0.997240   -0.085328
O    -2.087261   -1.381225    0.057784   -0.371248   -0.148150    0.002300
O     0.394434    2.425217   -0.189529    0.034478   -0.525475    0.044030
H     2.297788   -1.592949    0.195157   -0.067339    0.046291   -0.005745
H    -1.540110    1.159004   -0.138285    0.672082    1.066295   -0.070021
H     2.564611    0.915862   -0.005114   -0.153711    0.447610   -0.041254
11
* Frequency(28) 1749.1399
C     1.613683    0.354525    0.014720    0.103401   -0.242280    0.022836
C     1.396023   -0.954888    0.117295   -0.031811    0.049557   -0.004968
N     0.231333   -1.634501    0.141816   -0.068339   -0.008145   -0.001089
C    -0.754264   -0.840692    0.048822    0.698790    0.264524   -0.003245
N    -0.782513    0.451462   -0.059660   -0.132584   -0.251412    0.017221
C     0.405032    1.467276   -0.110759   -0.125331    0.997240   -0.085328
O    -2.124880   -1.396237    0.058017   -0.371248   -0.148150    0.002300
O     0.397928    2.371971   -0.185068    0.034478   -0.525475    0.044030
H     2.290965   -1.588259    0.194575   -0.067339    0.046291   -0.005745
H    -1.472008    1.267051   -0.145380    0.672082    1.066295   -0.070021
H     2.549035    0.961218   -0.009294   -0.153711    0.447610   -0.041254
11
* Frequency(28) 1749.1399
C     1.621752    0.335619    0.016502    0.103401   -0.242280    0.022836
C     1.393541   -0.951021    0.116908   -0.031811    0.049557   -0.004968
N     0.226000   -1.635137    0.141731   -0.068339   -0.008145   -0.001089
C    -0.699735   -0.820051    0.048569    0.698790    0.264524   -0.003245
N    -0.792859    0.431843   -0.058316   -0.132584   -0.251412    0.017221
C     0.395252    1.545095   -0.117418   -0.125331    0.997240   -0.085328
O    -2.153850   -1.407798    0.058197   -0.371248   -0.148150    0.002300
O     0.400618    2.330966   -0.181632    0.034478   -0.525475    0.044030
H     2.285710   -1.584646    0.194127   -0.067339    0.046291   -0.005745
H    -1.419563    1.350258   -0.150844    0.672082    1.066295   -0.070021
H     2.537041    0.996147   -0.012514   -0.153711    0.447610   -0.041254
11
* Frequency(28) 1749.1399
C     1.626537    0.324406    0.017559    0.103401   -0.242280    0.022836
C     1.392069   -0.948728    0.116678   -0.031811    0.049557   -0.004968
N     0.222837   -1.635514    0.141680   -0.068339   -0.008145   -0.001089
C    -0.667394   -0.807808    0.048419    0.698790    0.264524   -0.003245
N    -0.798996    0.420208   -0.057519   -0.132584   -0.251412    0.017221
C     0.389452    1.591249   -0.121367   -0.125331    0.997240   -0.085328
O    -2.171032   -1.414655    0.058303   -0.371248   -0.148150    0.002300
O     0.402214    2.306646   -0.179594    0.034478   -0.525475    0.044030
H     2.282593   -1.582504    0.193861   -0.067339    0.046291   -0.005745
H    -1.388458    1.399608   -0.154085    0.672082    1.066295   -0.070021
H     2.529927    1.016863   -0.014423   -0.153711    0.447610   -0.041254
11
* Frequency(28) 1749.1399
C     1.627521    0.322101    0.017776    0.103401   -0.242280    0.022836
C     1.391766   -0.948256    0.116630   -0.031811    0.049557   -0.004968
N     0.222187   -1.635591    0.141670   -0.068339   -0.008145   -0.001089
C    -0.660745   -0.805291    0.048388    0.698790    0.264524   -0.003245
N    -0.800257    0.417816   -0.057355   -0.132584   -0.251412    0.017221
C     0.388259    1.600737   -0.122179   -0.125331    0.997240   -0.085328
O    -2.174564   -1.416064    0.058325   -0.371248   -0.148150    0.002300
O     0.402542    2.301647   -0.179175    0.034478   -0.525475    0.044030
H     2.281953   -1.582064    0.193806   -0.067339    0.046291   -0.005745
H    -1.382063    1.409753   -0.154751    0.672082    1.066295   -0.070021
H     2.528464    1.021122   -0.014815   -0.153711    0.447610   -0.041254
11
* Frequency(28) 1749.1399
C     1.624597    0.328954    0.017130    0.103401   -0.242280    0.022836
C     1.392666   -0.949658    0.116771   -0.031811    0.049557   -0.004968
N     0.224120   -1.635361    0.141701   -0.068339   -0.008145   -0.001089
C    -0.680510   -0.812773    0.048480    0.698790    0.264524   -0.003245
N    -0.796507    0.424926   -0.057842   -0.132584   -0.251412    0.017221
C     0.391804    1.572531   -0.119766   -0.125331    0.997240   -0.085328
O    -2.164064   -1.411874    0.058260   -0.371248   -0.148150    0.002300
O     0.401567    2.316509   -0.180421    0.034478   -0.525475    0.044030
H     2.283857   -1.583373    0.193969   -0.067339    0.046291   -0.005745
H    -1.401073    1.379594   -0.152771    0.672082    1.066295   -0.070021
H     2.532812    1.008462   -0.013649   -0.153711    0.447610   -0.041254
11
* Frequency(28) 1749.1399
C     1.618080    0.344221    0.015691    0.103401   -0.242280    0.022836
C     1.394670   -0.952781    0.117084   -0.031811    0.049557   -0.004968
N     0.228426   -1.634848    0.141769   -0.068339   -0.008145   -0.001089
C    -0.724546   -0.829442    0.048684    0.698790    0.264524   -0.003245
N    -0.788152    0.440770   -0.058927   -0.132584   -0.251412    0.017221
C     0.399702    1.509688   -0.114388   -0.125331    0.997240   -0.085328
O    -2.140669   -1.402538    0.058115   -0.371248   -0.148150    0.002300
O     0.399394    2.349623   -0.183195    0.034478   -0.525475    0.044030
H     2.288101   -1.586290    0.194331   -0.067339    0.046291   -0.005745
H    -1.443425    1.312399   -0.148358    0.672082    1.066295   -0.070021
H     2.542498    0.980255   -0.011049   -0.153711    0.447610   -0.041254
11
* Frequency(28) 1749.1399
C     1.608679    0.366250    0.013615    0.103401   -0.242280    0.022836
C     1.397563   -0.957286    0.117536   -0.031811    0.049557   -0.004968
N     0.234640   -1.634107    0.141868   -0.068339   -0.008145   -0.001089
C    -0.788081   -0.853493    0.048979    0.698790    0.264524   -0.003245
N    -0.776097    0.463629   -0.060493   -0.132584   -0.251412    0.017221
C     0.411097    1.419017   -0.106630   -0.125331    0.997240   -0.085328
O    -2.106914   -1.389068    0.057906   -0.371248   -0.148150    0.002300
O     0.396259    2.397400   -0.187199    0.034478   -0.525475    0.044030
H     2.294224   -1.590499    0.194853   -0.067339    0.046291   -0.005745
H    -1.504532    1.215450   -0.141992    0.672082    1.066295   -0.070021
H     2.556474    0.939557   -0.007298   -0.153711    0.447610   -0.041254
11
* Frequency(28) 1749.1399
C     1.597411    0.392652    0.011126    0.103401   -0.242280    0.022836
C     1.401029   -0.962687    0.118077   -0.031811    0.049557   -0.004968
N     0.242087   -1.633220    0.141987   -0.068339   -0.008145   -0.001089
C    -0.864231   -0.882320    0.049333    0.698790    0.264524   -0.003245
N    -0.761649    0.491026   -0.062370   -0.132584   -0.251412    0.017221
C     0.424755    1.310344   -0.097332   -0.125331    0.997240   -0.085328
O    -2.066458   -1.372924    0.057655   -0.371248   -0.148150    0.002300
O     0.392502    2.454663   -0.191997    0.034478   -0.525475    0.044030
H     2.301562   -1.595543    0.195479   -0.067339    0.046291   -0.005745
H    -1.577771    1.099252   -0.134361    0.672082    1.066295   -0.070021
H     2.573224    0.890780   -0.002802   -0.153711    0.447610   -0.041254
11
* Frequency(28) 1749.1399
C     1.585498    0.420567    0.008495    0.103401   -0.242280    0.022836
C     1.404695   -0.968397    0.118650   -0.031811    0.049557   -0.004968
N     0.249961   -1.632281    0.142112   -0.068339   -0.008145   -0.001089
C    -0.944742   -0.912797    0.049706    0.698790    0.264524   -0.003245
N    -0.746373    0.519993   -0.064354   -0.132584   -0.251412    0.017221
C     0.439195    1.195446   -0.087500   -0.125331    0.997240   -0.085328
O    -2.023684   -1.355854    0.057390   -0.371248   -0.148150    0.002300
O     0.388530    2.515206   -0.197070    0.034478   -0.525475    0.044030
H     2.309320   -1.600877    0.196141   -0.067339    0.046291   -0.005745
H    -1.655206    0.976398   -0.126294    0.672082    1.066295   -0.070021
H     2.590934    0.839208    0.001951   -0.153711    0.447610   -0.041254
11
* Frequency(28) 1749.1399
C     1.574230    0.446969    0.006006    0.103401   -0.242280    0.022836
C     1.408161   -0.973797    0.119191   -0.031811    0.049557   -0.004968
N     0.257408   -1.631394    0.142231   -0.068339   -0.008145   -0.001089
C    -1.020892   -0.941623    0.050060    0.698790    0.264524   -0.003245
N    -0.731925    0.547390   -0.066230   -0.132584   -0.251412    0.017221
C     0.452853    1.086773   -0.078202   -0.125331    0.997240   -0.085328
O    -1.983228   -1.339710    0.057140   -0.371248   -0.148150    0.002300
O     0.384773    2.572469   -0.201868    0.034478   -0.525475    0.044030
H     2.316658   -1.605921    0.196767   -0.067339    0.046291   -0.005745
H    -1.728445    0.860200   -0.118664    0.672082    1.066295   -0.070021
H     2.607685    0.790430    0.006446   -0.153711    0.447610   -0.041254
11
* Frequency(28) 1749.1399
C     1.564828    0.468997    0.003930    0.103401   -0.242280    0.022836
C     1.411054   -0.978303    0.119643   -0.031811    0.049557   -0.004968
N     0.263621   -1.630653    0.142330   -0.068339   -0.008145   -0.001089
C    -1.084427   -0.965674    0.050355    0.698790    0.264524   -0.003245
N    -0.719870    0.570249   -0.067796   -0.132584   -0.251412    0.017221
C     0.464248    0.996103   -0.070444   -0.125331    0.997240   -0.085328
O    -1.949473   -1.326240    0.056931   -0.371248   -0.148150    0.002300
O     0.381638    2.620246   -0.205871    0.034478   -0.525475    0.044030
H     2.322781   -1.610130    0.197289   -0.067339    0.046291   -0.005745
H    -1.789552    0.763250   -0.112297    0.672082    1.066295   -0.070021
H     2.621660    0.749732    0.010197   -0.153711    0.447610   -0.041254
11
* Frequency(28) 1749.1399
C     1.558312    0.484265    0.002491    0.103401   -0.242280    0.022836
C     1.413058   -0.981426    0.119956   -0.031811    0.049557   -0.004968
N     0.267928   -1.630140    0.142399   -0.068339   -0.008145   -0.001089
C    -1.128463   -0.982344    0.050560    0.698790    0.264524   -0.003245
N    -0.711515    0.586092   -0.068881   -0.132584   -0.251412    0.017221
C     0.472146    0.933259   -0.065066   -0.125331    0.997240   -0.085328
O    -1.926078   -1.316904    0.056786   -0.371248   -0.148150    0.002300
O     0.379465    2.653360   -0.208646    0.034478   -0.525475    0.044030
H     2.327025   -1.613047    0.197651   -0.067339    0.046291   -0.005745
H    -1.831905    0.696055   -0.107885    0.672082    1.066295   -0.070021
H     2.631347    0.721525    0.012797   -0.153711    0.447610   -0.041254
11
* Frequency(28) 1749.1399
C     1.555388    0.491118    0.001845    0.103401   -0.242280    0.022836
C     1.413958   -0.982827    0.120096   -0.031811    0.049557   -0.004968
N     0.269861   -1.629910    0.142429   -0.068339   -0.008145   -0.001089
C    -1.148228   -0.989826    0.050651    0.698790    0.264524   -0.003245
N    -0.707765    0.593203   -0.069368   -0.132584   -0.251412    0.017221
C     0.475691    0.905053   -0.062653   -0.125331    0.997240   -0.085328
O    -1.915578   -1.312714    0.056721   -0.371248   -0.148150    0.002300
O     0.378490    2.668223   -0.209891    0.034478   -0.525475    0.044030
H     2.328929   -1.614356    0.197814   -0.067339    0.046291   -0.005745
H    -1.850914    0.665896   -0.105904    0.672082    1.066295   -0.070021
H     2.635694    0.708865    0.013964   -0.153711    0.447610   -0.041254
11
* Frequency(28) 1749.1399
C     1.556371    0.488812    0.002062    0.103401   -0.242280    0.022836
C     1.413655   -0.982356    0.120049   -0.031811    0.049557   -0.004968
N     0.269211   -1.629987    0.142419   -0.068339   -0.008145   -0.001089
C    -1.141579   -0.987309    0.050620    0.698790    0.264524   -0.003245
N    -0.709027    0.590811   -0.069205   -0.132584   -0.251412    0.017221
C     0.474499    0.914542   -0.063465   -0.125331    0.997240   -0.085328
O    -1.919110   -1.314123    0.056743   -0.371248   -0.148150    0.002300
O     0.378818    2.663223   -0.209472    0.034478   -0.525475    0.044030
H     2.328289   -1.613916    0.197759   -0.067339    0.046291   -0.005745
H    -1.844520    0.676042   -0.106570    0.672082    1.066295   -0.070021
H     2.634232    0.713124    0.013571   -0.153711    0.447610   -0.041254
11
* Frequency(28) 1749.1399
C     1.561157    0.477599    0.003119    0.103401   -0.242280    0.022836
C     1.412183   -0.980062    0.119819   -0.031811    0.049557   -0.004968
N     0.266048   -1.630364    0.142369   -0.068339   -0.008145   -0.001089
C    -1.109238   -0.975066    0.050470    0.698790    0.264524   -0.003245
N    -0.715163    0.579175   -0.068408   -0.132584   -0.251412    0.017221
C     0.468698    0.960696   -0.067414   -0.125331    0.997240   -0.085328
O    -1.936292   -1.320980    0.056849   -0.371248   -0.148150    0.002300
O     0.380414    2.638903   -0.207434    0.034478   -0.525475    0.044030
H     2.325172   -1.611774    0.197493   -0.067339    0.046291   -0.005745
H    -1.813415    0.725392   -0.109811    0.672082    1.066295   -0.070021
H     2.627118    0.733840    0.011662   -0.153711    0.447610   -0.041254
11
* Frequency(28) 1749.1399
C     1.569226    0.458693    0.004901    0.103401   -0.242280    0.022836
C     1.409701   -0.976195    0.119431   -0.031811    0.049557   -0.004968
N     0.260715   -1.631000    0.142284   -0.068339   -0.008145   -0.001089
C    -1.054709   -0.954424    0.050217    0.698790    0.264524   -0.003245
N    -0.725509    0.559556   -0.067064   -0.132584   -0.251412    0.017221
C     0.458918    1.038514   -0.074073   -0.125331    0.997240   -0.085328
O    -1.965262   -1.332541    0.057029   -0.371248   -0.148150    0.002300
O     0.383104    2.597899   -0.203998    0.034478   -0.525475    0.044030
H     2.319917   -1.608161    0.197045   -0.067339    0.046291   -0.005745
H    -1.760969    0.808599   -0.115275    0.672082    1.066295   -0.070021
H     2.615123    0.768769    0.008443   -0.153711    0.447610   -0.041254
11
* Frequency(28) 1749.1399
C     1.579703    0.434143    0.007215    0.103401   -0.242280    0.022836
C     1.406477   -0.971174    0.118928   -0.031811    0.049557   -0.004968
N     0.253790   -1.631825    0.142173   -0.068339   -0.008145   -0.001089
C    -0.983900   -0.927620    0.049888    0.698790    0.264524   -0.003245
N    -0.738944    0.534081   -0.065319   -0.132584   -0.251412    0.017221
C     0.446218    1.139564   -0.082719   -0.125331    0.997240   -0.085328
O    -2.002880   -1.347553    0.057262   -0.371248   -0.148150    0.002300
O     0.386598    2.544652   -0.199537    0.034478   -0.525475    0.044030
H     2.313094   -1.603471    0.196463   -0.067339    0.046291   -0.005745
H    -1.692868    0.916646   -0.122370    0.672082    1.066295   -0.070021
H     2.599548    0.814125    0.004262   -0.153711    0.447610   -0.041254
11
* Frequency(28) 1749.1399
C     1.591454    0.406609    0.009810    0.103401   -0.242280    0.022836
C     1.402862   -0.965542    0.118363   -0.031811    0.049557   -0.004968
N     0.246024   -1.632751    0.142050   -0.068339   -0.008145   -0.001089
C    -0.904486   -0.897558    0.049520    0.698790    0.264524   -0.003245
N    -0.754011    0.505509   -0.063362   -0.132584   -0.251412    0.017221
C     0.431975    1.252895   -0.092416   -0.125331    0.997240   -0.085328
O    -2.045071   -1.364389    0.057523   -0.371248   -0.148150    0.002300
O     0.390516    2.484935   -0.194533    0.034478   -0.525475    0.044030
H     2.305441   -1.598210    0.195810   -0.067339    0.046291   -0.005745
H    -1.616489    1.037825   -0.130328    0.672082    1.066295   -0.070021
H     2.582079    0.864994   -0.000426   -0.153711    0.447610   -0.041254
