11
* (null), Energy   -1000.0000000
C     1.591454    0.406609    0.009810    0.008056   -0.001111    0.000319
C     1.402862   -0.965542    0.118363   -0.132684    0.106385   -0.012498
N     0.246024   -1.632751    0.142050   -0.003657   -0.002994    0.000152
C    -0.904486   -0.897558    0.049520    0.005366   -0.000185    0.000159
N    -0.754011    0.505509   -0.063362   -0.000293    0.000195   -0.000024
C     0.431975    1.252895   -0.092416    0.001861   -0.000845    0.000124
O    -2.045071   -1.364389    0.057523   -0.001447   -0.000423   -0.000004
O     0.390516    2.484935   -0.194533   -0.000387    0.000964   -0.000091
H     2.305441   -1.598210    0.195810    1.608240   -1.159705    0.140681
H    -1.616489    1.037825   -0.130328    0.004808   -0.000236    0.000148
H     2.582079    0.864994   -0.000426   -0.130135   -0.051899    0.000649
11
* Frequency(30) 3037.0492
C     1.592370    0.406483    0.009847    0.008056   -0.001111    0.000319
C     1.387783   -0.953452    0.116943   -0.132684    0.106385   -0.012498
N     0.245608   -1.633091    0.142067   -0.003657   -0.002994    0.000152
C    -0.903877   -0.897579    0.049538    0.005366   -0.000185    0.000159
N    -0.754045    0.505531   -0.063365   -0.000293    0.000195   -0.000024
C     0.432187    1.252799   -0.092402    0.001861   -0.000845    0.000124
O    -2.045235   -1.364437    0.057522   -0.001447   -0.000423   -0.000004
O     0.390472    2.485044   -0.194543   -0.000387    0.000964   -0.000091
H     2.488209   -1.730004    0.211798    1.608240   -1.159705    0.140681
H    -1.615942    1.037798   -0.130311    0.004808   -0.000236    0.000148
H     2.567290    0.859096   -0.000352   -0.130135   -0.051899    0.000649
11
* Frequency(30) 3037.0492
C     1.593186    0.406370    0.009879    0.008056   -0.001111    0.000319
C     1.374338   -0.942672    0.115677   -0.132684    0.106385   -0.012498
N     0.245238   -1.633394    0.142082   -0.003657   -0.002994    0.000152
C    -0.903333   -0.897598    0.049554    0.005366   -0.000185    0.000159
N    -0.754074    0.505551   -0.063367   -0.000293    0.000195   -0.000024
C     0.432375    1.252713   -0.092389    0.001861   -0.000845    0.000124
O    -2.045382   -1.364480    0.057522   -0.001447   -0.000423   -0.000004
O     0.390433    2.485142   -0.194553   -0.000387    0.000964   -0.000091
H     2.651172   -1.847517    0.226053    1.608240   -1.159705    0.140681
H    -1.615455    1.037774   -0.130296    0.004808   -0.000236    0.000148
H     2.554104    0.853837   -0.000286   -0.130135   -0.051899    0.000649
11
* Frequency(30) 3037.0492
C     1.593815    0.406284    0.009904    0.008056   -0.001111    0.000319
C     1.363984   -0.934370    0.114701   -0.132684    0.106385   -0.012498
N     0.244952   -1.633628    0.142094   -0.003657   -0.002994    0.000152
C    -0.902914   -0.897613    0.049566    0.005366   -0.000185    0.000159
N    -0.754097    0.505566   -0.063369   -0.000293    0.000195   -0.000024
C     0.432521    1.252648   -0.092380    0.001861   -0.000845    0.000124
O    -2.045495   -1.364513    0.057522   -0.001447   -0.000423   -0.000004
O     0.390403    2.485217   -0.194560   -0.000387    0.000964   -0.000091
H     2.776669   -1.938013    0.237031    1.608240   -1.159705    0.140681
H    -1.615080    1.037756   -0.130284    0.004808   -0.000236    0.000148
H     2.543949    0.849787   -0.000236   -0.130135   -0.051899    0.000649
11
* Frequency(30) 3037.0492
C     1.594188    0.406232    0.009919    0.008056   -0.001111    0.000319
C     1.357844   -0.929446    0.114123   -0.132684    0.106385   -0.012498
N     0.244783   -1.633766    0.142101   -0.003657   -0.002994    0.000152
C    -0.902666   -0.897621    0.049574    0.005366   -0.000185    0.000159
N    -0.754111    0.505575   -0.063370   -0.000293    0.000195   -0.000024
C     0.432607    1.252608   -0.092374    0.001861   -0.000845    0.000124
O    -2.045562   -1.364532    0.057521   -0.001447   -0.000423   -0.000004
O     0.390385    2.485262   -0.194564   -0.000387    0.000964   -0.000091
H     2.851101   -1.991686    0.243542    1.608240   -1.159705    0.140681
H    -1.614857    1.037745   -0.130277    0.004808   -0.000236    0.000148
H     2.537926    0.847385   -0.000206   -0.130135   -0.051899    0.000649
11
* Frequency(30) 3037.0492
C     1.594264    0.406222    0.009922    0.008056   -0.001111    0.000319
C     1.356581   -0.928434    0.114004   -0.132684    0.106385   -0.012498
N     0.244748   -1.633795    0.142103   -0.003657   -0.002994    0.000152
C    -0.902615   -0.897623    0.049575    0.005366   -0.000185    0.000159
N    -0.754114    0.505577   -0.063370   -0.000293    0.000195   -0.000024
C     0.432624    1.252600   -0.092373    0.001861   -0.000845    0.000124
O    -2.045575   -1.364536    0.057521   -0.001447   -0.000423   -0.000004
O     0.390381    2.485271   -0.194565   -0.000387    0.000964   -0.000091
H     2.866403   -2.002720    0.244880    1.608240   -1.159705    0.140681
H    -1.614812    1.037743   -0.130276    0.004808   -0.000236    0.000148
H     2.536688    0.846891   -0.000199   -0.130135   -0.051899    0.000649
11
* Frequency(30) 3037.0492
C     1.594037    0.406253    0.009913    0.008056   -0.001111    0.000319
C     1.360334   -0.931443    0.114358   -0.132684    0.106385   -0.012498
N     0.244852   -1.633710    0.142098   -0.003657   -0.002994    0.000152
C    -0.902767   -0.897618    0.049571    0.005366   -0.000185    0.000159
N    -0.754105    0.505572   -0.063370   -0.000293    0.000195   -0.000024
C     0.432572    1.252624   -0.092376    0.001861   -0.000845    0.000124
O    -2.045534   -1.364524    0.057522   -0.001447   -0.000423   -0.000004
O     0.390392    2.485244   -0.194562   -0.000387    0.000964   -0.000091
H     2.820915   -1.969919    0.240901    1.608240   -1.159705    0.140681
H    -1.614948    1.037749   -0.130280    0.004808   -0.000236    0.000148
H     2.540368    0.848359   -0.000218   -0.130135   -0.051899    0.000649
11
* Frequency(30) 3037.0492
C     1.593529    0.406323    0.009892    0.008056   -0.001111    0.000319
C     1.368695   -0.938147    0.115145   -0.132684    0.106385   -0.012498
N     0.245082   -1.633522    0.142089   -0.003657   -0.002994    0.000152
C    -0.903105   -0.897606    0.049561    0.005366   -0.000185    0.000159
N    -0.754087    0.505559   -0.063368   -0.000293    0.000195   -0.000024
C     0.432454    1.252678   -0.092384    0.001861   -0.000845    0.000124
O    -2.045443   -1.364498    0.057522   -0.001447   -0.000423   -0.000004
O     0.390416    2.485183   -0.194556   -0.000387    0.000964   -0.000091
H     2.719568   -1.896838    0.232036    1.608240   -1.159705    0.140681
H    -1.615251    1.037764   -0.130290    0.004808   -0.000236    0.000148
H     2.548569    0.851630   -0.000259   -0.130135   -0.051899    0.000649
11
* Frequency(30) 3037.0492
C     1.592796    0.406424    0.009864    0.008056   -0.001111    0.000319
C     1.380759   -0.947820    0.116281   -0.132684    0.106385   -0.012498
N     0.245415   -1.633249    0.142075   -0.003657   -0.002994    0.000152
C    -0.903593   -0.897589    0.049546    0.005366   -0.000185    0.000159
N    -0.754060    0.505542   -0.063366   -0.000293    0.000195   -0.000024
C     0.432285    1.252754   -0.092395    0.001861   -0.000845    0.000124
O    -2.045312   -1.364459    0.057522   -0.001447   -0.000423   -0.000004
O     0.390452    2.485095   -0.194548   -0.000387    0.000964   -0.000091
H     2.573344   -1.791396    0.219245    1.608240   -1.159705    0.140681
H    -1.615688    1.037786   -0.130303    0.004808   -0.000236    0.000148
H     2.560401    0.856348   -0.000318   -0.130135   -0.051899    0.000649
11
* Frequency(30) 3037.0492
C     1.591918    0.406545    0.009829    0.008056   -0.001111    0.000319
C     1.395218   -0.959413    0.117643   -0.132684    0.106385   -0.012498
N     0.245813   -1.632923    0.142058   -0.003657   -0.002994    0.000152
C    -0.904177   -0.897569    0.049529    0.005366   -0.000185    0.000159
N    -0.754028    0.505520   -0.063363   -0.000293    0.000195   -0.000024
C     0.432082    1.252847   -0.092409    0.001861   -0.000845    0.000124
O    -2.045154   -1.364413    0.057523   -0.001447   -0.000423   -0.000004
O     0.390494    2.484990   -0.194538   -0.000387    0.000964   -0.000091
H     2.398089   -1.665018    0.203914    1.608240   -1.159705    0.140681
H    -1.616212    1.037811   -0.130319    0.004808   -0.000236    0.000148
H     2.574582    0.862004   -0.000389   -0.130135   -0.051899    0.000649
11
* Frequency(30) 3037.0492
C     1.590990    0.406673    0.009792    0.008056   -0.001111    0.000319
C     1.410506   -0.971670    0.119083   -0.132684    0.106385   -0.012498
N     0.246235   -1.632578    0.142041   -0.003657   -0.002994    0.000152
C    -0.904796   -0.897548    0.049510    0.005366   -0.000185    0.000159
N    -0.753994    0.505498   -0.063360   -0.000293    0.000195   -0.000024
C     0.431868    1.252944   -0.092423    0.001861   -0.000845    0.000124
O    -2.044987   -1.364365    0.057523   -0.001447   -0.000423   -0.000004
O     0.390538    2.484879   -0.194528   -0.000387    0.000964   -0.000091
H     2.212793   -1.531402    0.187706    1.608240   -1.159705    0.140681
H    -1.616766    1.037838   -0.130336    0.004808   -0.000236    0.000148
H     2.589576    0.867983   -0.000463   -0.130135   -0.051899    0.000649
11
* Frequency(30) 3037.0492
C     1.590112    0.406794    0.009757    0.008056   -0.001111    0.000319
C     1.424965   -0.983264    0.120445   -0.132684    0.106385   -0.012498
N     0.246633   -1.632252    0.142024   -0.003657   -0.002994    0.000152
C    -0.905380   -0.897527    0.049493    0.005366   -0.000185    0.000159
N    -0.753962    0.505477   -0.063358   -0.000293    0.000195   -0.000024
C     0.431665    1.253036   -0.092437    0.001861   -0.000845    0.000124
O    -2.044830   -1.364319    0.057524   -0.001447   -0.000423   -0.000004
O     0.390581    2.484774   -0.194518   -0.000387    0.000964   -0.000091
H     2.037538   -1.405024    0.172375    1.608240   -1.159705    0.140681
H    -1.617290    1.037864   -0.130352    0.004808   -0.000236    0.000148
H     2.603757    0.873639   -0.000534   -0.130135   -0.051899    0.000649
11
* Frequency(30) 3037.0492
C     1.589380    0.406895    0.009728    0.008056   -0.001111    0.000319
C     1.437029   -0.992936    0.121582   -0.132684    0.106385   -0.012498
N     0.246966   -1.631980    0.142011   -0.003657   -0.002994    0.000152
C    -0.905868   -0.897511    0.049479    0.005366   -0.000185    0.000159
N    -0.753936    0.505459   -0.063356   -0.000293    0.000195   -0.000024
C     0.431496    1.253113   -0.092448    0.001861   -0.000845    0.000124
O    -2.044698   -1.364280    0.057524   -0.001447   -0.000423   -0.000004
O     0.390616    2.484686   -0.194510   -0.000387    0.000964   -0.000091
H     1.891314   -1.299582    0.159584    1.608240   -1.159705    0.140681
H    -1.617727    1.037885   -0.130366    0.004808   -0.000236    0.000148
H     2.615589    0.878358   -0.000593   -0.130135   -0.051899    0.000649
11
* Frequency(30) 3037.0492
C     1.588872    0.406965    0.009708    0.008056   -0.001111    0.000319
C     1.445390   -0.999640    0.122369   -0.132684    0.106385   -0.012498
N     0.247196   -1.631791    0.142001   -0.003657   -0.002994    0.000152
C    -0.906206   -0.897499    0.049468    0.005366   -0.000185    0.000159
N    -0.753917    0.505447   -0.063354   -0.000293    0.000195   -0.000024
C     0.431379    1.253166   -0.092456    0.001861   -0.000845    0.000124
O    -2.044607   -1.364254    0.057524   -0.001447   -0.000423   -0.000004
O     0.390640    2.484626   -0.194504   -0.000387    0.000964   -0.000091
H     1.789967   -1.226501    0.150719    1.608240   -1.159705    0.140681
H    -1.618030    1.037900   -0.130375    0.004808   -0.000236    0.000148
H     2.623790    0.881628   -0.000634   -0.130135   -0.051899    0.000649
11
* Frequency(30) 3037.0492
C     1.588644    0.406997    0.009699    0.008056   -0.001111    0.000319
C     1.449143   -1.002649    0.122723   -0.132684    0.106385   -0.012498
N     0.247300   -1.631706    0.141997   -0.003657   -0.002994    0.000152
C    -0.906358   -0.897494    0.049464    0.005366   -0.000185    0.000159
N    -0.753909    0.505441   -0.063353   -0.000293    0.000195   -0.000024
C     0.431326    1.253190   -0.092459    0.001861   -0.000845    0.000124
O    -2.044566   -1.364242    0.057525   -0.001447   -0.000423   -0.000004
O     0.390651    2.484598   -0.194501   -0.000387    0.000964   -0.000091
H     1.744479   -1.193700    0.146740    1.608240   -1.159705    0.140681
H    -1.618166    1.037907   -0.130379    0.004808   -0.000236    0.000148
H     2.627471    0.883096   -0.000652   -0.130135   -0.051899    0.000649
11
* Frequency(30) 3037.0492
C     1.588721    0.406986    0.009702    0.008056   -0.001111    0.000319
C     1.447880   -1.001637    0.122604   -0.132684    0.106385   -0.012498
N     0.247265   -1.631735    0.141998   -0.003657   -0.002994    0.000152
C    -0.906307   -0.897495    0.049465    0.005366   -0.000185    0.000159
N    -0.753912    0.505443   -0.063354   -0.000293    0.000195   -0.000024
C     0.431344    1.253182   -0.092458    0.001861   -0.000845    0.000124
O    -2.044580   -1.364246    0.057524   -0.001447   -0.000423   -0.000004
O     0.390647    2.484608   -0.194502   -0.000387    0.000964   -0.000091
H     1.759781   -1.204734    0.148078    1.608240   -1.159705    0.140681
H    -1.618120    1.037905   -0.130378    0.004808   -0.000236    0.000148
H     2.626233    0.882602   -0.000646   -0.130135   -0.051899    0.000649
11
* Frequency(30) 3037.0492
C     1.589094    0.406935    0.009717    0.008056   -0.001111    0.000319
C     1.441739   -0.996714    0.122025   -0.132684    0.106385   -0.012498
N     0.247096   -1.631873    0.142005   -0.003657   -0.002994    0.000152
C    -0.906059   -0.897504    0.049473    0.005366   -0.000185    0.000159
N    -0.753925    0.505452   -0.063355   -0.000293    0.000195   -0.000024
C     0.431430    1.253143   -0.092452    0.001861   -0.000845    0.000124
O    -2.044647   -1.364265    0.057524   -0.001447   -0.000423   -0.000004
O     0.390630    2.484652   -0.194506   -0.000387    0.000964   -0.000091
H     1.834213   -1.258407    0.154589    1.608240   -1.159705    0.140681
H    -1.617898    1.037894   -0.130371    0.004808   -0.000236    0.000148
H     2.620210    0.880200   -0.000616   -0.130135   -0.051899    0.000649
11
* Frequency(30) 3037.0492
C     1.589722    0.406848    0.009742    0.008056   -0.001111    0.000319
C     1.431386   -0.988412    0.121050   -0.132684    0.106385   -0.012498
N     0.246810   -1.632107    0.142017   -0.003657   -0.002994    0.000152
C    -0.905640   -0.897518    0.049485    0.005366   -0.000185    0.000159
N    -0.753948    0.505467   -0.063357   -0.000293    0.000195   -0.000024
C     0.431575    1.253077   -0.092443    0.001861   -0.000845    0.000124
O    -2.044760   -1.364298    0.057524   -0.001447   -0.000423   -0.000004
O     0.390599    2.484727   -0.194514   -0.000387    0.000964   -0.000091
H     1.959710   -1.348903    0.165567    1.608240   -1.159705    0.140681
H    -1.617523    1.037875   -0.130360    0.004808   -0.000236    0.000148
H     2.610055    0.876150   -0.000566   -0.130135   -0.051899    0.000649
11
* Frequency(30) 3037.0492
C     1.590539    0.406735    0.009774    0.008056   -0.001111    0.000319
C     1.417941   -0.977632    0.119784   -0.132684    0.106385   -0.012498
N     0.246440   -1.632410    0.142032   -0.003657   -0.002994    0.000152
C    -0.905096   -0.897537    0.049501    0.005366   -0.000185    0.000159
N    -0.753978    0.505487   -0.063359   -0.000293    0.000195   -0.000024
C     0.431764    1.252991   -0.092430    0.001861   -0.000845    0.000124
O    -2.044906   -1.364341    0.057523   -0.001447   -0.000423   -0.000004
O     0.390560    2.484825   -0.194523   -0.000387    0.000964   -0.000091
H     2.122673   -1.466416    0.179822    1.608240   -1.159705    0.140681
H    -1.617035    1.037852   -0.130345    0.004808   -0.000236    0.000148
H     2.596868    0.870892   -0.000500   -0.130135   -0.051899    0.000649
11
* Frequency(30) 3037.0492
C     1.591454    0.406609    0.009810    0.008056   -0.001111    0.000319
C     1.402862   -0.965542    0.118363   -0.132684    0.106385   -0.012498
N     0.246024   -1.632751    0.142050   -0.003657   -0.002994    0.000152
C    -0.904486   -0.897558    0.049520    0.005366   -0.000185    0.000159
N    -0.754011    0.505509   -0.063362   -0.000293    0.000195   -0.000024
C     0.431975    1.252895   -0.092416    0.001861   -0.000845    0.000124
O    -2.045071   -1.364389    0.057523   -0.001447   -0.000423   -0.000004
O     0.390516    2.484935   -0.194533   -0.000387    0.000964   -0.000091
H     2.305441   -1.598210    0.195810    1.608240   -1.159705    0.140681
H    -1.616489    1.037825   -0.130328    0.004808   -0.000236    0.000148
H     2.582079    0.864994   -0.000426   -0.130135   -0.051899    0.000649
