11
* (null), Energy   -1000.0000000
C     1.357708    0.575724   -0.019982    0.102117   -0.237701    0.022346
C     1.169529   -0.796569    0.088269   -0.032069    0.049141   -0.004928
N     0.012816   -1.463992    0.112098   -0.072299   -0.008211   -0.001261
C    -1.137586   -0.728374    0.019659    0.720615    0.270003   -0.002904
N    -0.987337    0.674496   -0.092673   -0.135571   -0.250984    0.017070
C     0.198487    1.422060   -0.121503   -0.121882    0.980071   -0.084511
O    -2.278352   -1.195100    0.027552   -0.382614   -0.152627    0.002328
O     0.157268    2.653978   -0.224886    0.033829   -0.515525    0.043705
H     2.071990   -1.429182    0.165269   -0.067585    0.047803   -0.005842
H    -1.849786    1.206815   -0.161518    0.673211    1.070816   -0.070116
H     2.348454    1.034025   -0.030636   -0.150144    0.439393   -0.040278
11
* Frequency(28) 1748.9647
C     1.369313    0.548711   -0.017442    0.102117   -0.237701    0.022346
C     1.165884   -0.790985    0.087709   -0.032069    0.049141   -0.004928
N     0.004600   -1.464925    0.111955   -0.072299   -0.008211   -0.001261
C    -1.055692   -0.697690    0.019329    0.720615    0.270003   -0.002904
N    -1.002744    0.645973   -0.090733   -0.135571   -0.250984    0.017070
C     0.184635    1.533440   -0.131107   -0.121882    0.980071   -0.084511
O    -2.321835   -1.212446    0.027816   -0.382614   -0.152627    0.002328
O     0.161112    2.595391   -0.219919    0.033829   -0.515525    0.043705
H     2.064310   -1.423749    0.164606   -0.067585    0.047803   -0.005842
H    -1.773279    1.328507   -0.169487    0.673211    1.070816   -0.070116
H     2.331391    1.083959   -0.035214   -0.150144    0.439393   -0.040278
11
* Frequency(28) 1748.9647
C     1.379660    0.524625   -0.015178    0.102117   -0.237701    0.022346
C     1.162635   -0.786005    0.087210   -0.032069    0.049141   -0.004928
N    -0.002726   -1.465757    0.111827   -0.072299   -0.008211   -0.001261
C    -0.982672   -0.670330    0.019034    0.720615    0.270003   -0.002904
N    -1.016482    0.620541   -0.089003   -0.135571   -0.250984    0.017070
C     0.172285    1.632751   -0.139670   -0.121882    0.980071   -0.084511
O    -2.360605   -1.227911    0.028052   -0.382614   -0.152627    0.002328
O     0.164540    2.543153   -0.215490    0.033829   -0.515525    0.043705
H     2.057461   -1.418905    0.164014   -0.067585    0.047803   -0.005842
H    -1.705062    1.437013   -0.176592    0.673211    1.070816   -0.070116
H     2.316177    1.128483   -0.039295   -0.150144    0.439393   -0.040278
11
* Frequency(28) 1748.9647
C     1.387629    0.506076   -0.013434    0.102117   -0.237701    0.022346
C     1.160132   -0.782171    0.086825   -0.032069    0.049141   -0.004928
N    -0.008368   -1.466398    0.111728   -0.072299   -0.008211   -0.001261
C    -0.926440   -0.649261    0.018808    0.720615    0.270003   -0.002904
N    -1.027061    0.600956   -0.087671   -0.135571   -0.250984    0.017070
C     0.162774    1.709229   -0.146265   -0.121882    0.980071   -0.084511
O    -2.390462   -1.239821    0.028234   -0.382614   -0.152627    0.002328
O     0.167180    2.502925   -0.212080    0.033829   -0.515525    0.043705
H     2.052187   -1.415175    0.163558   -0.067585    0.047803   -0.005842
H    -1.652529    1.520573   -0.182063    0.673211    1.070816   -0.070116
H     2.304460    1.162770   -0.042438   -0.150144    0.439393   -0.040278
11
* Frequency(28) 1748.9647
C     1.392355    0.495075   -0.012400    0.102117   -0.237701    0.022346
C     1.158648   -0.779896    0.086597   -0.032069    0.049141   -0.004928
N    -0.011714   -1.466778    0.111670   -0.072299   -0.008211   -0.001261
C    -0.893088   -0.636765    0.018673    0.720615    0.270003   -0.002904
N    -1.033335    0.589340   -0.086881   -0.135571   -0.250984    0.017070
C     0.157133    1.754589   -0.150176   -0.121882    0.980071   -0.084511
O    -2.408170   -1.246885    0.028342   -0.382614   -0.152627    0.002328
O     0.168745    2.479065   -0.210057    0.033829   -0.515525    0.043705
H     2.049059   -1.412963    0.163287   -0.067585    0.047803   -0.005842
H    -1.621372    1.570132   -0.185308    0.673211    1.070816   -0.070116
H     2.297511    1.183106   -0.044302   -0.150144    0.439393   -0.040278
11
* Frequency(28) 1748.9647
C     1.393327    0.492813   -0.012187    0.102117   -0.237701    0.022346
C     1.158343   -0.779429    0.086550   -0.032069    0.049141   -0.004928
N    -0.012402   -1.466856    0.111658   -0.072299   -0.008211   -0.001261
C    -0.886232   -0.634196    0.018646    0.720615    0.270003   -0.002904
N    -1.034625    0.586952   -0.086719   -0.135571   -0.250984    0.017070
C     0.155974    1.763914   -0.150981   -0.121882    0.980071   -0.084511
O    -2.411810   -1.248337    0.028364   -0.382614   -0.152627    0.002328
O     0.169067    2.474160   -0.209641    0.033829   -0.515525    0.043705
H     2.048416   -1.412508    0.163232   -0.067585    0.047803   -0.005842
H    -1.614966    1.580320   -0.185975    0.673211    1.070816   -0.070116
H     2.296083    1.187287   -0.044685   -0.150144    0.439393   -0.040278
11
* Frequency(28) 1748.9647
C     1.390438    0.499536   -0.012819    0.102117   -0.237701    0.022346
C     1.159250   -0.780819    0.086689   -0.032069    0.049141   -0.004928
N    -0.010357   -1.466624    0.111694   -0.072299   -0.008211   -0.001261
C    -0.906614   -0.641833    0.018728    0.720615    0.270003   -0.002904
N    -1.030791    0.594051   -0.087202   -0.135571   -0.250984    0.017070
C     0.159421    1.736193   -0.148590   -0.121882    0.980071   -0.084511
O    -2.400988   -1.244020    0.028298   -0.382614   -0.152627    0.002328
O     0.168110    2.488741   -0.210877    0.033829   -0.515525    0.043705
H     2.050328   -1.413860    0.163397   -0.067585    0.047803   -0.005842
H    -1.634008    1.550033   -0.183992    0.673211    1.070816   -0.070116
H     2.300330    1.174859   -0.043546   -0.150144    0.439393   -0.040278
11
* Frequency(28) 1748.9647
C     1.384003    0.514516   -0.014228    0.102117   -0.237701    0.022346
C     1.161271   -0.783915    0.087000   -0.032069    0.049141   -0.004928
N    -0.005801   -1.466107    0.111773   -0.072299   -0.008211   -0.001261
C    -0.952025   -0.658848    0.018911    0.720615    0.270003   -0.002904
N    -1.022247    0.609867   -0.088277   -0.135571   -0.250984    0.017070
C     0.167102    1.674432   -0.143265   -0.121882    0.980071   -0.084511
O    -2.376877   -1.234402    0.028151   -0.382614   -0.152627    0.002328
O     0.165979    2.521229   -0.213631    0.033829   -0.515525    0.043705
H     2.054587   -1.416872    0.163765   -0.067585    0.047803   -0.005842
H    -1.676431    1.482553   -0.179573    0.673211    1.070816   -0.070116
H     2.309791    1.147170   -0.041008   -0.150144    0.439393   -0.040278
11
* Frequency(28) 1748.9647
C     1.374719    0.536128   -0.016259    0.102117   -0.237701    0.022346
C     1.164187   -0.788383    0.087448   -0.032069    0.049141   -0.004928
N     0.000772   -1.465360    0.111888   -0.072299   -0.008211   -0.001261
C    -1.017545   -0.683397    0.019175    0.720615    0.270003   -0.002904
N    -1.009921    0.632687   -0.089829   -0.135571   -0.250984    0.017070
C     0.178183    1.585322   -0.135581   -0.121882    0.980071   -0.084511
O    -2.342089   -1.220525    0.027940   -0.382614   -0.152627    0.002328
O     0.162903    2.568101   -0.217605    0.033829   -0.515525    0.043705
H     2.060732   -1.421219    0.164296   -0.067585    0.047803   -0.005842
H    -1.737641    1.385193   -0.173198    0.673211    1.070816   -0.070116
H     2.323443    1.107219   -0.037346   -0.150144    0.439393   -0.040278
11
* Frequency(28) 1748.9647
C     1.363591    0.562031   -0.018694    0.102117   -0.237701    0.022346
C     1.167681   -0.793738    0.087985   -0.032069    0.049141   -0.004928
N     0.008651   -1.464465    0.112025   -0.072299   -0.008211   -0.001261
C    -1.096073   -0.712820    0.019491    0.720615    0.270003   -0.002904
N    -0.995147    0.660037   -0.091689   -0.135571   -0.250984    0.017070
C     0.191465    1.478520   -0.126371   -0.121882    0.980071   -0.084511
O    -2.300394   -1.203893    0.027686   -0.382614   -0.152627    0.002328
O     0.159216    2.624280   -0.222368    0.033829   -0.515525    0.043705
H     2.068097   -1.426428    0.164933   -0.067585    0.047803   -0.005842
H    -1.811003    1.268502   -0.165558    0.673211    1.070816   -0.070116
H     2.339804    1.059337   -0.032956   -0.150144    0.439393   -0.040278
11
* Frequency(28) 1748.9647
C     1.351825    0.589418   -0.021269    0.102117   -0.237701    0.022346
C     1.171376   -0.799400    0.088553   -0.032069    0.049141   -0.004928
N     0.016981   -1.463519    0.112171   -0.072299   -0.008211   -0.001261
C    -1.179099   -0.743928    0.019826    0.720615    0.270003   -0.002904
N    -0.979527    0.688955   -0.093656   -0.135571   -0.250984    0.017070
C     0.205508    1.365600   -0.116634   -0.121882    0.980071   -0.084511
O    -2.256311   -1.186308    0.027418   -0.382614   -0.152627    0.002328
O     0.155319    2.683676   -0.227403    0.033829   -0.515525    0.043705
H     2.075884   -1.431936    0.165606   -0.067585    0.047803   -0.005842
H    -1.888568    1.145127   -0.157479    0.673211    1.070816   -0.070116
H     2.357104    1.008712   -0.028316   -0.150144    0.439393   -0.040278
11
* Frequency(28) 1748.9647
C     1.340697    0.615321   -0.023704    0.102117   -0.237701    0.022346
C     1.174871   -0.804755    0.089090   -0.032069    0.049141   -0.004928
N     0.024860   -1.462625    0.112308   -0.072299   -0.008211   -0.001261
C    -1.257627   -0.773352    0.020143    0.720615    0.270003   -0.002904
N    -0.964754    0.716305   -0.095516   -0.135571   -0.250984    0.017070
C     0.218790    1.258799   -0.107425   -0.121882    0.980071   -0.084511
O    -2.214616   -1.169675    0.027164   -0.382614   -0.152627    0.002328
O     0.151632    2.739855   -0.232166    0.033829   -0.515525    0.043705
H     2.083249   -1.437145    0.166243   -0.067585    0.047803   -0.005842
H    -1.961930    1.028436   -0.149838    0.673211    1.070816   -0.070116
H     2.373465    0.960830   -0.023926   -0.150144    0.439393   -0.040278
11
* Frequency(28) 1748.9647
C     1.331412    0.636933   -0.025736    0.102117   -0.237701    0.022346
C     1.177787   -0.809223    0.089538   -0.032069    0.049141   -0.004928
N     0.031433   -1.461878    0.112423   -0.072299   -0.008211   -0.001261
C    -1.323147   -0.797901    0.020407    0.720615    0.270003   -0.002904
N    -0.952427    0.739125   -0.097068   -0.135571   -0.250984    0.017070
C     0.229872    1.169689   -0.099741   -0.121882    0.980071   -0.084511
O    -2.179828   -1.155798    0.026952   -0.382614   -0.152627    0.002328
O     0.148557    2.786728   -0.236140    0.033829   -0.515525    0.043705
H     2.089394   -1.441491    0.166774   -0.067585    0.047803   -0.005842
H    -2.023140    0.931076   -0.143463    0.673211    1.070816   -0.070116
H     2.387117    0.920879   -0.020264   -0.150144    0.439393   -0.040278
11
* Frequency(28) 1748.9647
C     1.324977    0.651912   -0.027144    0.102117   -0.237701    0.022346
C     1.179808   -0.812320    0.089849   -0.032069    0.049141   -0.004928
N     0.035989   -1.461361    0.112502   -0.072299   -0.008211   -0.001261
C    -1.368558   -0.814916    0.020590    0.720615    0.270003   -0.002904
N    -0.943884    0.754942   -0.098144   -0.135571   -0.250984    0.017070
C     0.237552    1.107927   -0.094415   -0.121882    0.980071   -0.084511
O    -2.155717   -1.146180    0.026806   -0.382614   -0.152627    0.002328
O     0.146425    2.819215   -0.238894    0.033829   -0.515525    0.043705
H     2.093653   -1.444504    0.167142   -0.067585    0.047803   -0.005842
H    -2.065564    0.863596   -0.139045    0.673211    1.070816   -0.070116
H     2.396578    0.893190   -0.017726   -0.150144    0.439393   -0.040278
11
* Frequency(28) 1748.9647
C     1.322089    0.658635   -0.027776    0.102117   -0.237701    0.022346
C     1.180715   -0.813710    0.089988   -0.032069    0.049141   -0.004928
N     0.038034   -1.461128    0.112538   -0.072299   -0.008211   -0.001261
C    -1.388940   -0.822552    0.020672    0.720615    0.270003   -0.002904
N    -0.940049    0.762041   -0.098627   -0.135571   -0.250984    0.017070
C     0.241000    1.080207   -0.092025   -0.121882    0.980071   -0.084511
O    -2.144895   -1.141863    0.026740   -0.382614   -0.152627    0.002328
O     0.145468    2.833796   -0.240130    0.033829   -0.515525    0.043705
H     2.095565   -1.445856    0.167307   -0.067585    0.047803   -0.005842
H    -2.084605    0.833309   -0.137062    0.673211    1.070816   -0.070116
H     2.400825    0.880762   -0.016587   -0.150144    0.439393   -0.040278
11
* Frequency(28) 1748.9647
C     1.323061    0.656374   -0.027563    0.102117   -0.237701    0.022346
C     1.180410   -0.813242    0.089941   -0.032069    0.049141   -0.004928
N     0.037346   -1.461206    0.112526   -0.072299   -0.008211   -0.001261
C    -1.382083   -0.819983    0.020644    0.720615    0.270003   -0.002904
N    -0.941339    0.759653   -0.098464   -0.135571   -0.250984    0.017070
C     0.239840    1.089532   -0.092829   -0.121882    0.980071   -0.084511
O    -2.148535   -1.143315    0.026762   -0.382614   -0.152627    0.002328
O     0.145790    2.828891   -0.239714    0.033829   -0.515525    0.043705
H     2.094922   -1.445401    0.167252   -0.067585    0.047803   -0.005842
H    -2.078199    0.843497   -0.137729    0.673211    1.070816   -0.070116
H     2.399397    0.884943   -0.016970   -0.150144    0.439393   -0.040278
11
* Frequency(28) 1748.9647
C     1.327787    0.645373   -0.026529    0.102117   -0.237701    0.022346
C     1.178925   -0.810968    0.089713   -0.032069    0.049141   -0.004928
N     0.034000   -1.461587    0.112468   -0.072299   -0.008211   -0.001261
C    -1.348732   -0.807487    0.020510    0.720615    0.270003   -0.002904
N    -0.947614    0.748037   -0.097674   -0.135571   -0.250984    0.017070
C     0.234199    1.134891   -0.096740   -0.121882    0.980071   -0.084511
O    -2.166243   -1.150379    0.026870   -0.382614   -0.152627    0.002328
O     0.147355    2.805031   -0.237691    0.033829   -0.515525    0.043705
H     2.091794   -1.443189    0.166981   -0.067585    0.047803   -0.005842
H    -2.047042    0.893056   -0.140974    0.673211    1.070816   -0.070116
H     2.392448    0.905279   -0.018834   -0.150144    0.439393   -0.040278
11
* Frequency(28) 1748.9647
C     1.335755    0.626824   -0.024785    0.102117   -0.237701    0.022346
C     1.176423   -0.807133    0.089329   -0.032069    0.049141   -0.004928
N     0.028358   -1.462227    0.112369   -0.072299   -0.008211   -0.001261
C    -1.292500   -0.786418    0.020283    0.720615    0.270003   -0.002904
N    -0.958193    0.728451   -0.096342   -0.135571   -0.250984    0.017070
C     0.224688    1.211370   -0.103335   -0.121882    0.980071   -0.084511
O    -2.196100   -1.162289    0.027051   -0.382614   -0.152627    0.002328
O     0.149995    2.764803   -0.234281    0.033829   -0.515525    0.043705
H     2.086520   -1.439458    0.166525   -0.067585    0.047803   -0.005842
H    -1.994509    0.976616   -0.146445    0.673211    1.070816   -0.070116
H     2.380731    0.939566   -0.021977   -0.150144    0.439393   -0.040278
11
* Frequency(28) 1748.9647
C     1.346103    0.602738   -0.022521    0.102117   -0.237701    0.022346
C     1.173173   -0.802154    0.088829   -0.032069    0.049141   -0.004928
N     0.021032   -1.463059    0.112241   -0.072299   -0.008211   -0.001261
C    -1.219480   -0.759059    0.019989    0.720615    0.270003   -0.002904
N    -0.971930    0.703019   -0.094613   -0.135571   -0.250984    0.017070
C     0.212338    1.310680   -0.111899   -0.121882    0.980071   -0.084511
O    -2.234870   -1.177755    0.027287   -0.382614   -0.152627    0.002328
O     0.153423    2.712565   -0.229852    0.033829   -0.515525    0.043705
H     2.079671   -1.434614    0.165933   -0.067585    0.047803   -0.005842
H    -1.926293    1.085122   -0.153550    0.673211    1.070816   -0.070116
H     2.365517    0.984090   -0.026059   -0.150144    0.439393   -0.040278
11
* Frequency(28) 1748.9647
C     1.357708    0.575724   -0.019982    0.102117   -0.237701    0.022346
C     1.169529   -0.796569    0.088269   -0.032069    0.049141   -0.004928
N     0.012816   -1.463992    0.112098   -0.072299   -0.008211   -0.001261
C    -1.137586   -0.728374    0.019659    0.720615    0.270003   -0.002904
N    -0.987337    0.674496   -0.092673   -0.135571   -0.250984    0.017070
C     0.198487    1.422060   -0.121503   -0.121882    0.980071   -0.084511
O    -2.278352   -1.195100    0.027552   -0.382614   -0.152627    0.002328
O     0.157268    2.653978   -0.224886    0.033829   -0.515525    0.043705
H     2.071990   -1.429182    0.165269   -0.067585    0.047803   -0.005842
H    -1.849786    1.206815   -0.161518    0.673211    1.070816   -0.070116
H     2.348454    1.034025   -0.030636   -0.150144    0.439393   -0.040278
