11
* (null), Energy   -1000.0000000
C     1.357708    0.575724   -0.019982    0.164845    0.531231   -0.038974
C     1.169529   -0.796569    0.088269    0.009375    0.604123   -0.049674
N     0.012816   -1.463992    0.112098    0.163698   -0.127393    0.014480
C    -1.137586   -0.728374    0.019659   -0.248730   -0.645266    0.047131
N    -0.987337    0.674496   -0.092673    0.227043   -0.553277    0.051244
C     0.198487    1.422060   -0.121503    0.038784    0.011335    0.000170
O    -2.278352   -1.195100    0.027552   -0.715065    0.164777   -0.033156
O     0.157268    2.653978   -0.224886    0.376894    0.004381    0.009743
H     2.071990   -1.429182    0.165269    0.160986    0.831453   -0.065141
H    -1.849786    1.206815   -0.161518    0.115833   -0.724563    0.071088
H     2.348454    1.034025   -0.030636    0.086659    0.691931   -0.054953
11
* Frequency(12)  611.7894
C     1.376442    0.636096   -0.024411    0.164845    0.531231   -0.038974
C     1.170594   -0.727914    0.082624    0.009375    0.604123   -0.049674
N     0.031419   -1.478470    0.113744    0.163698   -0.127393    0.014480
C    -1.165853   -0.801705    0.025015   -0.248730   -0.645266    0.047131
N    -0.961535    0.611619   -0.086849    0.227043   -0.553277    0.051244
C     0.202894    1.423349   -0.121483    0.038784    0.011335    0.000170
O    -2.359616   -1.176374    0.023784   -0.715065    0.164777   -0.033156
O     0.200100    2.654476   -0.223778    0.376894    0.004381    0.009743
H     2.090286   -1.334692    0.157866    0.160986    0.831453   -0.065141
H    -1.836622    1.124472   -0.153440    0.115833   -0.724563    0.071088
H     2.358302    1.112659   -0.036881    0.086659    0.691931   -0.054953
11
* Frequency(12)  611.7894
C     1.393145    0.689925   -0.028360    0.164845    0.531231   -0.038974
C     1.171544   -0.666698    0.077590    0.009375    0.604123   -0.049674
N     0.048007   -1.491379    0.115211    0.163698   -0.127393    0.014480
C    -1.191057   -0.867090    0.029791   -0.248730   -0.645266    0.047131
N    -0.938529    0.555556   -0.081657    0.227043   -0.553277    0.051244
C     0.206824    1.424497   -0.121466    0.038784    0.011335    0.000170
O    -2.432073   -1.159677    0.020424   -0.715065    0.164777   -0.033156
O     0.238290    2.654920   -0.222791    0.376894    0.004381    0.009743
H     2.106598   -1.250441    0.151266    0.160986    0.831453   -0.065141
H    -1.824885    1.051052   -0.146236    0.115833   -0.724563    0.071088
H     2.367084    1.182772   -0.042450    0.086659    0.691931   -0.054953
11
* Frequency(12)  611.7894
C     1.406009    0.731379   -0.031401    0.164845    0.531231   -0.038974
C     1.172276   -0.619556    0.073714    0.009375    0.604123   -0.049674
N     0.060781   -1.501320    0.116341    0.163698   -0.127393    0.014480
C    -1.210466   -0.917442    0.033468   -0.248730   -0.645266    0.047131
N    -0.920812    0.512381   -0.077658    0.227043   -0.553277    0.051244
C     0.209851    1.425382   -0.121453    0.038784    0.011335    0.000170
O    -2.487872   -1.146819    0.017837   -0.715065    0.164777   -0.033156
O     0.267701    2.655262   -0.222031    0.376894    0.004381    0.009743
H     2.119161   -1.185559    0.146183    0.160986    0.831453   -0.065141
H    -1.815846    0.994512   -0.140689    0.115833   -0.724563    0.071088
H     2.373846    1.236766   -0.046738    0.086659    0.691931   -0.054953
11
* Frequency(12)  611.7894
C     1.413638    0.755966   -0.033205    0.164845    0.531231   -0.038974
C     1.172710   -0.591596    0.071415    0.009375    0.604123   -0.049674
N     0.068357   -1.507216    0.117011    0.163698   -0.127393    0.014480
C    -1.221978   -0.947307    0.035650   -0.248730   -0.645266    0.047131
N    -0.910304    0.486775   -0.075286    0.227043   -0.553277    0.051244
C     0.211646    1.425906   -0.121445    0.038784    0.011335    0.000170
O    -2.520967   -1.139193    0.016302   -0.715065    0.164777   -0.033156
O     0.285144    2.655464   -0.221580    0.376894    0.004381    0.009743
H     2.126612   -1.147078    0.143168    0.160986    0.831453   -0.065141
H    -1.810485    0.960978   -0.137399    0.115833   -0.724563    0.071088
H     2.377857    1.268790   -0.049281    0.086659    0.691931   -0.054953
11
* Frequency(12)  611.7894
C     1.415207    0.761020   -0.033576    0.164845    0.531231   -0.038974
C     1.172799   -0.585849    0.070943    0.009375    0.604123   -0.049674
N     0.069915   -1.508428    0.117149    0.163698   -0.127393    0.014480
C    -1.224344   -0.953446    0.036098   -0.248730   -0.645266    0.047131
N    -0.908144    0.481511   -0.074799    0.227043   -0.553277    0.051244
C     0.212015    1.426014   -0.121443    0.038784    0.011335    0.000170
O    -2.527770   -1.137625    0.015987   -0.715065    0.164777   -0.033156
O     0.288730    2.655506   -0.221487    0.376894    0.004381    0.009743
H     2.128143   -1.139167    0.142548    0.160986    0.831453   -0.065141
H    -1.809383    0.954084   -0.136723    0.115833   -0.724563    0.071088
H     2.378681    1.275373   -0.049804    0.086659    0.691931   -0.054953
11
* Frequency(12)  611.7894
C     1.410544    0.745995   -0.032474    0.164845    0.531231   -0.038974
C     1.172534   -0.602935    0.072347    0.009375    0.604123   -0.049674
N     0.065285   -1.504825    0.116739    0.163698   -0.127393    0.014480
C    -1.217309   -0.935195    0.034765   -0.248730   -0.645266    0.047131
N    -0.914565    0.497159   -0.076248    0.227043   -0.553277    0.051244
C     0.210918    1.425693   -0.121448    0.038784    0.011335    0.000170
O    -2.507546   -1.142286    0.016925   -0.715065    0.164777   -0.033156
O     0.278070    2.655382   -0.221763    0.376894    0.004381    0.009743
H     2.123590   -1.162684    0.144390    0.160986    0.831453   -0.065141
H    -1.812659    0.974577   -0.138733    0.115833   -0.724563    0.071088
H     2.376230    1.255803   -0.048250    0.086659    0.691931   -0.054953
11
* Frequency(12)  611.7894
C     1.400156    0.712518   -0.030018    0.164845    0.531231   -0.038974
C     1.171943   -0.641006    0.075478    0.009375    0.604123   -0.049674
N     0.054969   -1.496797    0.115827    0.163698   -0.127393    0.014480
C    -1.201635   -0.894532    0.031795   -0.248730   -0.645266    0.047131
N    -0.928873    0.532026   -0.079477    0.227043   -0.553277    0.051244
C     0.208474    1.424979   -0.121459    0.038784    0.011335    0.000170
O    -2.462484   -1.152670    0.019014   -0.715065    0.164777   -0.033156
O     0.254319    2.655106   -0.222377    0.376894    0.004381    0.009743
H     2.113445   -1.215080    0.148495    0.160986    0.831453   -0.065141
H    -1.819958    1.020237   -0.143213    0.115833   -0.724563    0.071088
H     2.370769    1.212199   -0.044787    0.086659    0.691931   -0.054953
11
* Frequency(12)  611.7894
C     1.385168    0.664217   -0.026474    0.164845    0.531231   -0.038974
C     1.171091   -0.695934    0.079994    0.009375    0.604123   -0.049674
N     0.040085   -1.485214    0.114510    0.163698   -0.127393    0.014480
C    -1.179020   -0.835864    0.027510   -0.248730   -0.645266    0.047131
N    -0.949516    0.582330   -0.084136    0.227043   -0.553277    0.051244
C     0.204947    1.423949   -0.121474    0.038784    0.011335    0.000170
O    -2.397469   -1.167651    0.022029   -0.715065    0.164777   -0.033156
O     0.220051    2.654708   -0.223262    0.376894    0.004381    0.009743
H     2.098808   -1.290677    0.154418    0.160986    0.831453   -0.065141
H    -1.830490    1.086116   -0.149676    0.115833   -0.724563    0.071088
H     2.362890    1.149288   -0.039790    0.086659    0.691931   -0.054953
11
* Frequency(12)  611.7894
C     1.367204    0.606327   -0.022227    0.164845    0.531231   -0.038974
C     1.170069   -0.761767    0.085407    0.009375    0.604123   -0.049674
N     0.022246   -1.471331    0.112932    0.163698   -0.127393    0.014480
C    -1.151915   -0.765547    0.022374   -0.248730   -0.645266    0.047131
N    -0.974258    0.642623   -0.089721    0.227043   -0.553277    0.051244
C     0.200721    1.422713   -0.121493    0.038784    0.011335    0.000170
O    -2.319546   -1.185608    0.025642   -0.715065    0.164777   -0.033156
O     0.178980    2.654230   -0.224324    0.376894    0.004381    0.009743
H     2.081265   -1.381283    0.161517    0.160986    0.831453   -0.065141
H    -1.843113    1.165074   -0.157423    0.115833   -0.724563    0.071088
H     2.353446    1.073885   -0.033802    0.086659    0.691931   -0.054953
11
* Frequency(12)  611.7894
C     1.348211    0.545121   -0.017736    0.164845    0.531231   -0.038974
C     1.168989   -0.831372    0.091131    0.009375    0.604123   -0.049674
N     0.003386   -1.456653    0.111264    0.163698   -0.127393    0.014480
C    -1.123257   -0.691202    0.016944   -0.248730   -0.645266    0.047131
N    -1.000417    0.706369   -0.095625    0.227043   -0.553277    0.051244
C     0.196252    1.421407   -0.121513    0.038784    0.011335    0.000170
O    -2.237159   -1.204593    0.029462   -0.715065    0.164777   -0.033156
O     0.135555    2.653726   -0.225447    0.376894    0.004381    0.009743
H     2.062716   -1.477080    0.169022    0.160986    0.831453   -0.065141
H    -1.856458    1.248555   -0.165614    0.115833   -0.724563    0.071088
H     2.343462    0.994164   -0.027470    0.086659    0.691931   -0.054953
11
* Frequency(12)  611.7894
C     1.330248    0.487231   -0.013489    0.164845    0.531231   -0.038974
C     1.167967   -0.897205    0.096544    0.009375    0.604123   -0.049674
N    -0.014453   -1.442771    0.109686    0.163698   -0.127393    0.014480
C    -1.096152   -0.620885    0.011808   -0.248730   -0.645266    0.047131
N    -1.025159    0.766662   -0.101209    0.227043   -0.553277    0.051244
C     0.192026    1.420172   -0.121531    0.038784    0.011335    0.000170
O    -2.159236   -1.222549    0.033075   -0.715065    0.164777   -0.033156
O     0.094484    2.653248   -0.226509    0.376894    0.004381    0.009743
H     2.045173   -1.567687    0.176121    0.160986    0.831453   -0.065141
H    -1.869081    1.327513   -0.173360    0.115833   -0.724563    0.071088
H     2.334018    0.918762   -0.021482    0.086659    0.691931   -0.054953
11
* Frequency(12)  611.7894
C     1.315259    0.438931   -0.009946    0.164845    0.531231   -0.038974
C     1.167115   -0.952133    0.101060    0.009375    0.604123   -0.049674
N    -0.029337   -1.431188    0.108369    0.163698   -0.127393    0.014480
C    -1.073537   -0.562216    0.007523   -0.248730   -0.645266    0.047131
N    -1.045802    0.816967   -0.105868    0.227043   -0.553277    0.051244
C     0.188500    1.419142   -0.121547    0.038784    0.011335    0.000170
O    -2.094221   -1.237531    0.036090   -0.715065    0.164777   -0.033156
O     0.060216    2.652850   -0.227394    0.376894    0.004381    0.009743
H     2.030536   -1.643284    0.182044    0.160986    0.831453   -0.065141
H    -1.879613    1.393392   -0.179824    0.115833   -0.724563    0.071088
H     2.326139    0.855850   -0.016485    0.086659    0.691931   -0.054953
11
* Frequency(12)  611.7894
C     1.304871    0.405454   -0.007490    0.164845    0.531231   -0.038974
C     1.166524   -0.990203    0.104191    0.009375    0.604123   -0.049674
N    -0.039652   -1.423160    0.107457    0.163698   -0.127393    0.014480
C    -1.057863   -0.521553    0.004552   -0.248730   -0.645266    0.047131
N    -1.060109    0.851833   -0.109098    0.227043   -0.553277    0.051244
C     0.186055    1.418427   -0.121557    0.038784    0.011335    0.000170
O    -2.049159   -1.247915    0.038179   -0.715065    0.164777   -0.033156
O     0.036465    2.652574   -0.228008    0.376894    0.004381    0.009743
H     2.020391   -1.695680    0.186149    0.160986    0.831453   -0.065141
H    -1.886912    1.439052   -0.184304    0.115833   -0.724563    0.071088
H     2.320678    0.812246   -0.013023    0.086659    0.691931   -0.054953
11
* Frequency(12)  611.7894
C     1.300209    0.390429   -0.006387    0.164845    0.531231   -0.038974
C     1.166259   -1.007290    0.105596    0.009375    0.604123   -0.049674
N    -0.044282   -1.419557    0.107047    0.163698   -0.127393    0.014480
C    -1.050828   -0.503302    0.003219   -0.248730   -0.645266    0.047131
N    -1.066531    0.867482   -0.110547    0.227043   -0.553277    0.051244
C     0.184958    1.418107   -0.121562    0.038784    0.011335    0.000170
O    -2.028934   -1.252575    0.039117   -0.715065    0.164777   -0.033156
O     0.025805    2.652450   -0.228284    0.376894    0.004381    0.009743
H     2.015838   -1.719196    0.187991    0.160986    0.831453   -0.065141
H    -1.890188    1.459545   -0.186314    0.115833   -0.724563    0.071088
H     2.318227    0.792676   -0.011468    0.086659    0.691931   -0.054953
11
* Frequency(12)  611.7894
C     1.301777    0.395483   -0.006758    0.164845    0.531231   -0.038974
C     1.166348   -1.001542    0.105123    0.009375    0.604123   -0.049674
N    -0.042725   -1.420769    0.107185    0.163698   -0.127393    0.014480
C    -1.053194   -0.509442    0.003668   -0.248730   -0.645266    0.047131
N    -1.064371    0.862218   -0.110059    0.227043   -0.553277    0.051244
C     0.185327    1.418215   -0.121561    0.038784    0.011335    0.000170
O    -2.035738   -1.251007    0.038801   -0.715065    0.164777   -0.033156
O     0.029391    2.652492   -0.228191    0.376894    0.004381    0.009743
H     2.017369   -1.711286    0.187371    0.160986    0.831453   -0.065141
H    -1.889086    1.452652   -0.185638    0.115833   -0.724563    0.071088
H     2.319051    0.799259   -0.011991    0.086659    0.691931   -0.054953
11
* Frequency(12)  611.7894
C     1.309407    0.420069   -0.008562    0.164845    0.531231   -0.038974
C     1.166782   -0.973582    0.102824    0.009375    0.604123   -0.049674
N    -0.035149   -1.426665    0.107855    0.163698   -0.127393    0.014480
C    -1.064706   -0.539306    0.005849   -0.248730   -0.645266    0.047131
N    -1.053863    0.836611   -0.107688    0.227043   -0.553277    0.051244
C     0.187122    1.418739   -0.121553    0.038784    0.011335    0.000170
O    -2.068832   -1.243381    0.037267   -0.715065    0.164777   -0.033156
O     0.046834    2.652694   -0.227740    0.376894    0.004381    0.009743
H     2.024820   -1.672804    0.184356    0.160986    0.831453   -0.065141
H    -1.883725    1.419117   -0.182348    0.115833   -0.724563    0.071088
H     2.323062    0.831283   -0.014534    0.086659    0.691931   -0.054953
11
* Frequency(12)  611.7894
C     1.322270    0.461523   -0.011603    0.164845    0.531231   -0.038974
C     1.167513   -0.926440    0.098948    0.009375    0.604123   -0.049674
N    -0.022375   -1.436606    0.108985    0.163698   -0.127393    0.014480
C    -1.084115   -0.589658    0.009527   -0.248730   -0.645266    0.047131
N    -1.036146    0.793437   -0.103689    0.227043   -0.553277    0.051244
C     0.190149    1.419624   -0.121539    0.038784    0.011335    0.000170
O    -2.124632   -1.230523    0.034680   -0.715065    0.164777   -0.033156
O     0.076245    2.653036   -0.226980    0.376894    0.004381    0.009743
H     2.037382   -1.607923    0.179273    0.160986    0.831453   -0.065141
H    -1.874687    1.362577   -0.176801    0.115833   -0.724563    0.071088
H     2.329824    0.885277   -0.018823    0.086659    0.691931   -0.054953
11
* Frequency(12)  611.7894
C     1.338974    0.515353   -0.015552    0.164845    0.531231   -0.038974
C     1.168463   -0.865225    0.093914    0.009375    0.604123   -0.049674
N    -0.005787   -1.449515    0.110452    0.163698   -0.127393    0.014480
C    -1.109319   -0.655043    0.014303   -0.248730   -0.645266    0.047131
N    -1.013140    0.737373   -0.098496    0.227043   -0.553277    0.051244
C     0.194079    1.420772   -0.121522    0.038784    0.011335    0.000170
O    -2.197089   -1.213826    0.031320   -0.715065    0.164777   -0.033156
O     0.114436    2.653480   -0.225993    0.376894    0.004381    0.009743
H     2.053695   -1.523672    0.172672    0.160986    0.831453   -0.065141
H    -1.862949    1.289157   -0.169597    0.115833   -0.724563    0.071088
H     2.338606    0.955390   -0.024391    0.086659    0.691931   -0.054953
11
* Frequency(12)  611.7894
C     1.357708    0.575724   -0.019982    0.164845    0.531231   -0.038974
C     1.169529   -0.796569    0.088269    0.009375    0.604123   -0.049674
N     0.012816   -1.463992    0.112098    0.163698   -0.127393    0.014480
C    -1.137586   -0.728374    0.019659   -0.248730   -0.645266    0.047131
N    -0.987337    0.674496   -0.092673    0.227043   -0.553277    0.051244
C     0.198487    1.422060   -0.121503    0.038784    0.011335    0.000170
O    -2.278352   -1.195100    0.027552   -0.715065    0.164777   -0.033156
O     0.157268    2.653978   -0.224886    0.376894    0.004381    0.009743
H     2.071990   -1.429182    0.165269    0.160986    0.831453   -0.065141
H    -1.849786    1.206815   -0.161518    0.115833   -0.724563    0.071088
H     2.348454    1.034025   -0.030636    0.086659    0.691931   -0.054953
