11
* (null), Energy   -1000.0000000
C     1.591454    0.406609    0.009810    0.034903    0.240716   -0.018970
C     1.402862   -0.965542    0.118363    0.148879   -0.070279    0.009945
N     0.246024   -1.632751    0.142050   -0.055304   -0.112853    0.007864
C    -0.904486   -0.897558    0.049520   -0.123090    0.236326   -0.023094
N    -0.754011    0.505509   -0.063362    0.010889   -0.310079    0.026049
C     0.431975    1.252895   -0.092416   -0.371174   -0.059920   -0.005323
O    -2.045071   -1.364389    0.057523    0.084532    0.009320    0.001503
O     0.390516    2.484935   -0.194533    0.090680    0.102332   -0.005896
H     2.305441   -1.598210    0.195810    0.008713   -0.296038    0.024807
H    -1.616489    1.037825   -0.130328    0.941274    1.181514   -0.072027
H     2.582079    0.864994   -0.000426    0.585825   -0.913493    0.091843
11
* Frequency(24) 1339.6887
C     1.595421    0.433965    0.007655    0.034903    0.240716   -0.018970
C     1.419781   -0.973529    0.119493    0.148879   -0.070279    0.009945
N     0.239739   -1.645576    0.142943   -0.055304   -0.112853    0.007864
C    -0.918475   -0.870701    0.046895   -0.123090    0.236326   -0.023094
N    -0.752774    0.470270   -0.060401    0.010889   -0.310079    0.026049
C     0.389793    1.246086   -0.093021   -0.371174   -0.059920   -0.005323
O    -2.035464   -1.363330    0.057694    0.084532    0.009320    0.001503
O     0.400821    2.496564   -0.195203    0.090680    0.102332   -0.005896
H     2.306431   -1.631853    0.198629    0.008713   -0.296038    0.024807
H    -1.509518    1.172098   -0.138513    0.941274    1.181514   -0.072027
H     2.648655    0.761180    0.010011    0.585825   -0.913493    0.091843
11
* Frequency(24) 1339.6887
C     1.598958    0.458357    0.005733    0.034903    0.240716   -0.018970
C     1.434867   -0.980650    0.120501    0.148879   -0.070279    0.009945
N     0.234135   -1.657011    0.143740   -0.055304   -0.112853    0.007864
C    -0.930948   -0.846754    0.044555   -0.123090    0.236326   -0.023094
N    -0.751670    0.438850   -0.057762    0.010889   -0.310079    0.026049
C     0.352182    1.240014   -0.093560   -0.371174   -0.059920   -0.005323
O    -2.026899   -1.362385    0.057846    0.084532    0.009320    0.001503
O     0.410010    2.506933   -0.195801    0.090680    0.102332   -0.005896
H     2.307314   -1.661851    0.201143    0.008713   -0.296038    0.024807
H    -1.414139    1.291820   -0.145812    0.941274    1.181514   -0.072027
H     2.708017    0.668616    0.019318    0.585825   -0.913493    0.091843
11
* Frequency(24) 1339.6887
C     1.601681    0.477141    0.004252    0.034903    0.240716   -0.018970
C     1.446485   -0.986134    0.121277    0.148879   -0.070279    0.009945
N     0.229819   -1.665817    0.144354   -0.055304   -0.112853    0.007864
C    -0.940553   -0.828313    0.042753   -0.123090    0.236326   -0.023094
N    -0.750821    0.414653   -0.055729    0.010889   -0.310079    0.026049
C     0.323218    1.235338   -0.093976   -0.371174   -0.059920   -0.005323
O    -2.020302   -1.361658    0.057963    0.084532    0.009320    0.001503
O     0.417086    2.514919   -0.196261    0.090680    0.102332   -0.005896
H     2.307994   -1.684952    0.203079    0.008713   -0.296038    0.024807
H    -1.340688    1.384018   -0.151432    0.941274    1.181514   -0.072027
H     2.753731    0.597333    0.026485    0.585825   -0.913493    0.091843
11
* Frequency(24) 1339.6887
C     1.603297    0.488282    0.003374    0.034903    0.240716   -0.018970
C     1.453375   -0.989387    0.121737    0.148879   -0.070279    0.009945
N     0.227260   -1.671040    0.144718   -0.055304   -0.112853    0.007864
C    -0.946250   -0.817375    0.041684   -0.123090    0.236326   -0.023094
N    -0.750317    0.400302   -0.054524    0.010889   -0.310079    0.026049
C     0.306039    1.232565   -0.094222   -0.371174   -0.059920   -0.005323
O    -2.016390   -1.361227    0.058033    0.084532    0.009320    0.001503
O     0.421283    2.519655   -0.196534    0.090680    0.102332   -0.005896
H     2.308397   -1.698653    0.204227    0.008713   -0.296038    0.024807
H    -1.297124    1.438701   -0.154766    0.941274    1.181514   -0.072027
H     2.780844    0.555055    0.030735    0.585825   -0.913493    0.091843
11
* Frequency(24) 1339.6887
C     1.603629    0.490572    0.003194    0.034903    0.240716   -0.018970
C     1.454792   -0.990055    0.121832    0.148879   -0.070279    0.009945
N     0.226733   -1.672114    0.144793   -0.055304   -0.112853    0.007864
C    -0.947421   -0.815127    0.041464   -0.123090    0.236326   -0.023094
N    -0.750213    0.397352   -0.054276    0.010889   -0.310079    0.026049
C     0.302508    1.231995   -0.094273   -0.371174   -0.059920   -0.005323
O    -2.015586   -1.361138    0.058047    0.084532    0.009320    0.001503
O     0.422146    2.520629   -0.196590    0.090680    0.102332   -0.005896
H     2.308480   -1.701469    0.204463    0.008713   -0.296038    0.024807
H    -1.288168    1.449942   -0.155451    0.941274    1.181514   -0.072027
H     2.786418    0.546363    0.031609    0.585825   -0.913493    0.091843
11
* Frequency(24) 1339.6887
C     1.602641    0.483764    0.003730    0.034903    0.240716   -0.018970
C     1.450581   -0.988068    0.121551    0.148879   -0.070279    0.009945
N     0.228298   -1.668922    0.144570   -0.055304   -0.112853    0.007864
C    -0.943939   -0.821811    0.042117   -0.123090    0.236326   -0.023094
N    -0.750521    0.406122   -0.055013    0.010889   -0.310079    0.026049
C     0.313006    1.233690   -0.094122   -0.371174   -0.059920   -0.005323
O    -2.017976   -1.361402    0.058005    0.084532    0.009320    0.001503
O     0.419581    2.517734   -0.196423    0.090680    0.102332   -0.005896
H     2.308234   -1.693096    0.203761    0.008713   -0.296038    0.024807
H    -1.314791    1.416524   -0.153414    0.941274    1.181514   -0.072027
H     2.769848    0.572200    0.029011    0.585825   -0.913493    0.091843
11
* Frequency(24) 1339.6887
C     1.600442    0.468594    0.004926    0.034903    0.240716   -0.018970
C     1.441199   -0.983639    0.120924    0.148879   -0.070279    0.009945
N     0.231783   -1.661811    0.144075   -0.055304   -0.112853    0.007864
C    -0.936183   -0.836704    0.043573   -0.123090    0.236326   -0.023094
N    -0.751207    0.425663   -0.056654    0.010889   -0.310079    0.026049
C     0.336396    1.237466   -0.093787   -0.371174   -0.059920   -0.005323
O    -2.023303   -1.361989    0.057910    0.084532    0.009320    0.001503
O     0.413866    2.511286   -0.196051    0.090680    0.102332   -0.005896
H     2.307685   -1.674441    0.202198    0.008713   -0.296038    0.024807
H    -1.374108    1.342069   -0.148875    0.941274    1.181514   -0.072027
H     2.732931    0.629766    0.023224    0.585825   -0.913493    0.091843
11
* Frequency(24) 1339.6887
C     1.597269    0.446708    0.006651    0.034903    0.240716   -0.018970
C     1.427663   -0.977249    0.120020    0.148879   -0.070279    0.009945
N     0.236811   -1.651550    0.143360   -0.055304   -0.112853    0.007864
C    -0.924991   -0.858191    0.045672   -0.123090    0.236326   -0.023094
N    -0.752197    0.453856   -0.059022    0.010889   -0.310079    0.026049
C     0.370144    1.242914   -0.093303   -0.371174   -0.059920   -0.005323
O    -2.030989   -1.362836    0.057773    0.084532    0.009320    0.001503
O     0.405622    2.501981   -0.195515    0.090680    0.102332   -0.005896
H     2.306892   -1.647524    0.199942    0.008713   -0.296038    0.024807
H    -1.459690    1.234643   -0.142326    0.941274    1.181514   -0.072027
H     2.679667    0.712822    0.014873    0.585825   -0.913493    0.091843
11
* Frequency(24) 1339.6887
C     1.593465    0.420476    0.008718    0.034903    0.240716   -0.018970
C     1.411439   -0.969590    0.118936    0.148879   -0.070279    0.009945
N     0.242838   -1.639252    0.142503   -0.055304   -0.112853    0.007864
C    -0.911577   -0.883944    0.048189   -0.123090    0.236326   -0.023094
N    -0.753384    0.487646   -0.061861    0.010889   -0.310079    0.026049
C     0.410592    1.249443   -0.092723   -0.371174   -0.059920   -0.005323
O    -2.040201   -1.363852    0.057610    0.084532    0.009320    0.001503
O     0.395740    2.490830   -0.194873    0.090680    0.102332   -0.005896
H     2.305943   -1.615264    0.197239    0.008713   -0.296038    0.024807
H    -1.562264    1.105890   -0.134477    0.941274    1.181514   -0.072027
H     2.615828    0.812369    0.004865    0.585825   -0.913493    0.091843
11
* Frequency(24) 1339.6887
C     1.589444    0.392742    0.010903    0.034903    0.240716   -0.018970
C     1.394285   -0.961493    0.117790    0.148879   -0.070279    0.009945
N     0.249210   -1.626249    0.141597   -0.055304   -0.112853    0.007864
C    -0.897396   -0.911173    0.050850   -0.123090    0.236326   -0.023094
N    -0.754639    0.523372   -0.064862    0.010889   -0.310079    0.026049
C     0.453358    1.256347   -0.092109   -0.371174   -0.059920   -0.005323
O    -2.049941   -1.364926    0.057436    0.084532    0.009320    0.001503
O     0.385292    2.479040   -0.194193    0.090680    0.102332   -0.005896
H     2.304939   -1.581156    0.194381    0.008713   -0.296038    0.024807
H    -1.670714    0.969760   -0.126178    0.941274    1.181514   -0.072027
H     2.548331    0.917618   -0.005717    0.585825   -0.913493    0.091843
11
* Frequency(24) 1339.6887
C     1.585640    0.366510    0.012970    0.034903    0.240716   -0.018970
C     1.378061   -0.953835    0.116707    0.148879   -0.070279    0.009945
N     0.255237   -1.613951    0.140740   -0.055304   -0.112853    0.007864
C    -0.883982   -0.936926    0.053367   -0.123090    0.236326   -0.023094
N    -0.755825    0.557163   -0.067701    0.010889   -0.310079    0.026049
C     0.493806    1.262877   -0.091529   -0.371174   -0.059920   -0.005323
O    -2.059152   -1.365942    0.057273    0.084532    0.009320    0.001503
O     0.375410    2.467888   -0.193551    0.090680    0.102332   -0.005896
H     2.303989   -1.548896    0.191678    0.008713   -0.296038    0.024807
H    -1.773288    0.841006   -0.118329    0.941274    1.181514   -0.072027
H     2.484492    1.017165   -0.015725    0.585825   -0.913493    0.091843
11
* Frequency(24) 1339.6887
C     1.582467    0.344624    0.014695    0.034903    0.240716   -0.018970
C     1.364525   -0.947445    0.115803    0.148879   -0.070279    0.009945
N     0.260265   -1.603691    0.140025   -0.055304   -0.112853    0.007864
C    -0.872790   -0.958413    0.055466   -0.123090    0.236326   -0.023094
N    -0.756815    0.585356   -0.070069    0.010889   -0.310079    0.026049
C     0.527554    1.268325   -0.091045   -0.371174   -0.059920   -0.005323
O    -2.066838   -1.366789    0.057136    0.084532    0.009320    0.001503
O     0.367166    2.458584   -0.193015    0.090680    0.102332   -0.005896
H     2.303197   -1.521979    0.189422    0.008713   -0.296038    0.024807
H    -1.858870    0.733581   -0.111780    0.941274    1.181514   -0.072027
H     2.431227    1.100221   -0.024076    0.585825   -0.913493    0.091843
11
* Frequency(24) 1339.6887
C     1.580267    0.329455    0.015891    0.034903    0.240716   -0.018970
C     1.355143   -0.943016    0.115176    0.148879   -0.070279    0.009945
N     0.263750   -1.596579    0.139529   -0.055304   -0.112853    0.007864
C    -0.865034   -0.973306    0.056922   -0.123090    0.236326   -0.023094
N    -0.757501    0.604896   -0.071711    0.010889   -0.310079    0.026049
C     0.550944    1.272101   -0.090710   -0.371174   -0.059920   -0.005323
O    -2.072165   -1.367376    0.057041    0.084532    0.009320    0.001503
O     0.361451    2.452135   -0.192643    0.090680    0.102332   -0.005896
H     2.302648   -1.503324    0.187859    0.008713   -0.296038    0.024807
H    -1.918187    0.659125   -0.107241    0.941274    1.181514   -0.072027
H     2.394310    1.157787   -0.029863    0.585825   -0.913493    0.091843
11
* Frequency(24) 1339.6887
C     1.579280    0.322646    0.016427    0.034903    0.240716   -0.018970
C     1.350932   -0.941028    0.114895    0.148879   -0.070279    0.009945
N     0.265314   -1.593387    0.139307   -0.055304   -0.112853    0.007864
C    -0.861552   -0.979990    0.057575   -0.123090    0.236326   -0.023094
N    -0.757809    0.613666   -0.072448    0.010889   -0.310079    0.026049
C     0.561442    1.273796   -0.090559   -0.371174   -0.059920   -0.005323
O    -2.074556   -1.367640    0.056999    0.084532    0.009320    0.001503
O     0.358886    2.449241   -0.192477    0.090680    0.102332   -0.005896
H     2.302402   -1.494951    0.187157    0.008713   -0.296038    0.024807
H    -1.944809    0.625707   -0.105204    0.941274    1.181514   -0.072027
H     2.377741    1.183624   -0.032461    0.585825   -0.913493    0.091843
11
* Frequency(24) 1339.6887
C     1.579612    0.324937    0.016247    0.034903    0.240716   -0.018970
C     1.352349   -0.941697    0.114989    0.148879   -0.070279    0.009945
N     0.264788   -1.594461    0.139381   -0.055304   -0.112853    0.007864
C    -0.862723   -0.977741    0.057355   -0.123090    0.236326   -0.023094
N    -0.757706    0.610716   -0.072200    0.010889   -0.310079    0.026049
C     0.557911    1.273225   -0.090610   -0.371174   -0.059920   -0.005323
O    -2.073752   -1.367551    0.057013    0.084532    0.009320    0.001503
O     0.359749    2.450215   -0.192533    0.090680    0.102332   -0.005896
H     2.302485   -1.497767    0.187393    0.008713   -0.296038    0.024807
H    -1.935854    0.636949   -0.105890    0.941274    1.181514   -0.072027
H     2.383315    1.174933   -0.031587    0.585825   -0.913493    0.091843
11
* Frequency(24) 1339.6887
C     1.581227    0.336077    0.015369    0.034903    0.240716   -0.018970
C     1.359239   -0.944949    0.115449    0.148879   -0.070279    0.009945
N     0.262228   -1.599684    0.139745   -0.055304   -0.112853    0.007864
C    -0.868420   -0.966804    0.056286   -0.123090    0.236326   -0.023094
N    -0.757202    0.596365   -0.070994    0.010889   -0.310079    0.026049
C     0.540732    1.270452   -0.090856   -0.371174   -0.059920   -0.005323
O    -2.069839   -1.367120    0.057082    0.084532    0.009320    0.001503
O     0.363946    2.454951   -0.192805    0.090680    0.102332   -0.005896
H     2.302888   -1.511468    0.188541    0.008713   -0.296038    0.024807
H    -1.892290    0.691631   -0.109223    0.941274    1.181514   -0.072027
H     2.410428    1.132655   -0.027337    0.585825   -0.913493    0.091843
11
* Frequency(24) 1339.6887
C     1.583951    0.354861    0.013888    0.034903    0.240716   -0.018970
C     1.370857   -0.950434    0.116225    0.148879   -0.070279    0.009945
N     0.257913   -1.608490    0.140359   -0.055304   -0.112853    0.007864
C    -0.878025   -0.948362    0.054484   -0.123090    0.236326   -0.023094
N    -0.756352    0.572168   -0.068962    0.010889   -0.310079    0.026049
C     0.511768    1.265776   -0.091272   -0.371174   -0.059920   -0.005323
O    -2.063243   -1.366393    0.057200    0.084532    0.009320    0.001503
O     0.371022    2.462936   -0.193266    0.090680    0.102332   -0.005896
H     2.303568   -1.534569    0.190477    0.008713   -0.296038    0.024807
H    -1.818839    0.783830   -0.114844    0.941274    1.181514   -0.072027
H     2.456142    1.061371   -0.020170    0.585825   -0.913493    0.091843
11
* Frequency(24) 1339.6887
C     1.587488    0.379253    0.011966    0.034903    0.240716   -0.018970
C     1.385943   -0.957555    0.117233    0.148879   -0.070279    0.009945
N     0.252309   -1.619925    0.141156   -0.055304   -0.112853    0.007864
C    -0.890498   -0.924416    0.052144   -0.123090    0.236326   -0.023094
N    -0.755249    0.540748   -0.066322    0.010889   -0.310079    0.026049
C     0.474157    1.259705   -0.091811   -0.371174   -0.059920   -0.005323
O    -2.054677   -1.365448    0.057352    0.084532    0.009320    0.001503
O     0.380211    2.473305   -0.193863    0.090680    0.102332   -0.005896
H     2.304451   -1.564567    0.192991    0.008713   -0.296038    0.024807
H    -1.723460    0.903552   -0.122142    0.941274    1.181514   -0.072027
H     2.515503    0.968807   -0.010863    0.585825   -0.913493    0.091843
11
* Frequency(24) 1339.6887
C     1.591454    0.406609    0.009810    0.034903    0.240716   -0.018970
C     1.402862   -0.965542    0.118363    0.148879   -0.070279    0.009945
N     0.246024   -1.632751    0.142050   -0.055304   -0.112853    0.007864
C    -0.904486   -0.897558    0.049520   -0.123090    0.236326   -0.023094
N    -0.754011    0.505509   -0.063362    0.010889   -0.310079    0.026049
C     0.431975    1.252895   -0.092416   -0.371174   -0.059920   -0.005323
O    -2.045071   -1.364389    0.057523    0.084532    0.009320    0.001503
O     0.390516    2.484935   -0.194533    0.090680    0.102332   -0.005896
H     2.305441   -1.598210    0.195810    0.008713   -0.296038    0.024807
H    -1.616489    1.037825   -0.130328    0.941274    1.181514   -0.072027
H     2.582079    0.864994   -0.000426    0.585825   -0.913493    0.091843
