11
* (null), Energy   -1000.0000000
C     1.357708    0.575724   -0.019982    0.006223   -0.009419   -0.116404
C     1.169529   -0.796569    0.088269   -0.010283    0.028256    0.339389
N     0.012816   -1.463992    0.112098    0.000072   -0.001999   -0.025802
C    -1.137586   -0.728374    0.019659    0.003273   -0.007568   -0.090862
N    -0.987337    0.674496   -0.092673   -0.003118    0.000234    0.020072
C     0.198487    1.422060   -0.121503    0.000895   -0.002992   -0.042831
O    -2.278352   -1.195100    0.027552    0.000462    0.002345    0.018970
O     0.157268    2.653978   -0.224886   -0.000031    0.001361    0.008764
H     2.071990   -1.429182    0.165269    0.048985   -0.161000   -1.907761
H    -1.849786    1.206815   -0.161518   -0.007977   -0.003659    0.050844
H     2.348454    1.034025   -0.030636   -0.006807    0.031738    0.432376
11
* Frequency(19)  991.6869
C     1.358415    0.574654   -0.033210    0.006223   -0.009419   -0.116404
C     1.168360   -0.793358    0.126839   -0.010283    0.028256    0.339389
N     0.012824   -1.464219    0.109166    0.000072   -0.001999   -0.025802
C    -1.137214   -0.729234    0.009333    0.003273   -0.007568   -0.090862
N    -0.987692    0.674523   -0.090392   -0.003118    0.000234    0.020072
C     0.198588    1.421720   -0.126370    0.000895   -0.002992   -0.042831
O    -2.278300   -1.194834    0.029708    0.000462    0.002345    0.018970
O     0.157264    2.654133   -0.223890   -0.000031    0.001361    0.008764
H     2.077557   -1.447479   -0.051538    0.048985   -0.161000   -1.907761
H    -1.850692    1.206399   -0.155740   -0.007977   -0.003659    0.050844
H     2.347680    1.037631    0.018501   -0.006807    0.031738    0.432376
11
* Frequency(19)  991.6869
C     1.359046    0.573699   -0.045006    0.006223   -0.009419   -0.116404
C     1.167318   -0.790495    0.161229   -0.010283    0.028256    0.339389
N     0.012831   -1.464422    0.106551    0.000072   -0.001999   -0.025802
C    -1.136882   -0.730001    0.000126    0.003273   -0.007568   -0.090862
N    -0.988008    0.674546   -0.088358   -0.003118    0.000234    0.020072
C     0.198679    1.421417   -0.130710    0.000895   -0.002992   -0.042831
O    -2.278253   -1.194596    0.031630    0.000462    0.002345    0.018970
O     0.157261    2.654271   -0.223001   -0.000031    0.001361    0.008764
H     2.082521   -1.463793   -0.244851    0.048985   -0.161000   -1.907761
H    -1.851500    1.206028   -0.150588   -0.007977   -0.003659    0.050844
H     2.346991    1.040847    0.062314   -0.006807    0.031738    0.432376
11
* Frequency(19)  991.6869
C     1.359531    0.572964   -0.054089    0.006223   -0.009419   -0.116404
C     1.166516   -0.788290    0.187713   -0.010283    0.028256    0.339389
N     0.012837   -1.464578    0.104538    0.000072   -0.001999   -0.025802
C    -1.136627   -0.730592   -0.006965    0.003273   -0.007568   -0.090862
N    -0.988251    0.674565   -0.086791   -0.003118    0.000234    0.020072
C     0.198749    1.421184   -0.134053    0.000895   -0.002992   -0.042831
O    -2.278217   -1.194413    0.033110    0.000462    0.002345    0.018970
O     0.157259    2.654377   -0.222318   -0.000031    0.001361    0.008764
H     2.086343   -1.476356   -0.393720    0.048985   -0.161000   -1.907761
H    -1.852123    1.205743   -0.146621   -0.007977   -0.003659    0.050844
H     2.346459    1.043324    0.096054   -0.006807    0.031738    0.432376
11
* Frequency(19)  991.6869
C     1.359819    0.572528   -0.059476    0.006223   -0.009419   -0.116404
C     1.166040   -0.786982    0.203420   -0.010283    0.028256    0.339389
N     0.012840   -1.464670    0.103344    0.000072   -0.001999   -0.025802
C    -1.136475   -0.730942   -0.011170    0.003273   -0.007568   -0.090862
N    -0.988395    0.674575   -0.085862   -0.003118    0.000234    0.020072
C     0.198790    1.421045   -0.136035    0.000895   -0.002992   -0.042831
O    -2.278196   -1.194304    0.033988    0.000462    0.002345    0.018970
O     0.157257    2.654440   -0.221912   -0.000031    0.001361    0.008764
H     2.088611   -1.483808   -0.482015    0.048985   -0.161000   -1.907761
H    -1.852492    1.205573   -0.144268   -0.007977   -0.003659    0.050844
H     2.346144    1.044793    0.116065   -0.006807    0.031738    0.432376
11
* Frequency(19)  991.6869
C     1.359878    0.572439   -0.060584    0.006223   -0.009419   -0.116404
C     1.165942   -0.786714    0.206650   -0.010283    0.028256    0.339389
N     0.012841   -1.464689    0.103098    0.000072   -0.001999   -0.025802
C    -1.136444   -0.731014   -0.012034    0.003273   -0.007568   -0.090862
N    -0.988425    0.674578   -0.085671   -0.003118    0.000234    0.020072
C     0.198799    1.421017   -0.136442    0.000895   -0.002992   -0.042831
O    -2.278191   -1.194282    0.034169    0.000462    0.002345    0.018970
O     0.157257    2.654453   -0.221829   -0.000031    0.001361    0.008764
H     2.089077   -1.485340   -0.500166    0.048985   -0.161000   -1.907761
H    -1.852568    1.205538   -0.143784   -0.007977   -0.003659    0.050844
H     2.346080    1.045095    0.120179   -0.006807    0.031738    0.432376
11
* Frequency(19)  991.6869
C     1.359702    0.572705   -0.057292    0.006223   -0.009419   -0.116404
C     1.166233   -0.787513    0.197050   -0.010283    0.028256    0.339389
N     0.012839   -1.464633    0.103828    0.000072   -0.001999   -0.025802
C    -1.136537   -0.730800   -0.009464    0.003273   -0.007568   -0.090862
N    -0.988337    0.674571   -0.086239   -0.003118    0.000234    0.020072
C     0.198773    1.421101   -0.135231    0.000895   -0.002992   -0.042831
O    -2.278204   -1.194349    0.033632    0.000462    0.002345    0.018970
O     0.157258    2.654414   -0.222076   -0.000031    0.001361    0.008764
H     2.087691   -1.480786   -0.446207    0.048985   -0.161000   -1.907761
H    -1.852342    1.205642   -0.145222   -0.007977   -0.003659    0.050844
H     2.346272    1.044197    0.107949   -0.006807    0.031738    0.432376
11
* Frequency(19)  991.6869
C     1.359310    0.573299   -0.049956    0.006223   -0.009419   -0.116404
C     1.166881   -0.789293    0.175663   -0.010283    0.028256    0.339389
N     0.012834   -1.464507    0.105454    0.000072   -0.001999   -0.025802
C    -1.136743   -0.730323   -0.003739    0.003273   -0.007568   -0.090862
N    -0.988140    0.674556   -0.087504   -0.003118    0.000234    0.020072
C     0.198717    1.421290   -0.132532    0.000895   -0.002992   -0.042831
O    -2.278233   -1.194496    0.032437    0.000462    0.002345    0.018970
O     0.157260    2.654328   -0.222629   -0.000031    0.001361    0.008764
H     2.084604   -1.470640   -0.325986    0.048985   -0.161000   -1.907761
H    -1.851840    1.205872   -0.148426   -0.007977   -0.003659    0.050844
H     2.346701    1.042197    0.080702   -0.006807    0.031738    0.432376
11
* Frequency(19)  991.6869
C     1.358744    0.574155   -0.039372    0.006223   -0.009419   -0.116404
C     1.167816   -0.791862    0.144805   -0.010283    0.028256    0.339389
N     0.012828   -1.464325    0.107800    0.000072   -0.001999   -0.025802
C    -1.137041   -0.729635    0.004523    0.003273   -0.007568   -0.090862
N    -0.987857    0.674535   -0.089329   -0.003118    0.000234    0.020072
C     0.198636    1.421562   -0.128638    0.000895   -0.002992   -0.042831
O    -2.278275   -1.194710    0.030712    0.000462    0.002345    0.018970
O     0.157262    2.654205   -0.223426   -0.000031    0.001361    0.008764
H     2.080150   -1.456002   -0.152528    0.048985   -0.161000   -1.907761
H    -1.851114    1.206205   -0.153049   -0.007977   -0.003659    0.050844
H     2.347320    1.039312    0.041390   -0.006807    0.031738    0.432376
11
* Frequency(19)  991.6869
C     1.358066    0.575182   -0.026687    0.006223   -0.009419   -0.116404
C     1.168936   -0.794942    0.107821   -0.010283    0.028256    0.339389
N     0.012820   -1.464107    0.110612    0.000072   -0.001999   -0.025802
C    -1.137397   -0.728810    0.014424    0.003273   -0.007568   -0.090862
N    -0.987517    0.674510   -0.091516   -0.003118    0.000234    0.020072
C     0.198538    1.421888   -0.123970    0.000895   -0.002992   -0.042831
O    -2.278326   -1.194965    0.028645    0.000462    0.002345    0.018970
O     0.157266    2.654056   -0.224381   -0.000031    0.001361    0.008764
H     2.074812   -1.438457    0.055367    0.048985   -0.161000   -1.907761
H    -1.850245    1.206604   -0.158589   -0.007977   -0.003659    0.050844
H     2.348062    1.035853   -0.005728   -0.006807    0.031738    0.432376
11
* Frequency(19)  991.6869
C     1.357349    0.576267   -0.013276    0.006223   -0.009419   -0.116404
C     1.170121   -0.798197    0.068718   -0.010283    0.028256    0.339389
N     0.012812   -1.463877    0.113584    0.000072   -0.001999   -0.025802
C    -1.137774   -0.727938    0.024893    0.003273   -0.007568   -0.090862
N    -0.987158    0.674483   -0.093829   -0.003118    0.000234    0.020072
C     0.198435    1.422233   -0.119035    0.000895   -0.002992   -0.042831
O    -2.278379   -1.195235    0.026459    0.000462    0.002345    0.018970
O     0.157269    2.653900   -0.225390   -0.000031    0.001361    0.008764
H     2.069169   -1.419907    0.275172    0.048985   -0.161000   -1.907761
H    -1.849326    1.207025   -0.164447   -0.007977   -0.003659    0.050844
H     2.348846    1.032196   -0.055544   -0.006807    0.031738    0.432376
11
* Frequency(19)  991.6869
C     1.356671    0.577293   -0.000591    0.006223   -0.009419   -0.116404
C     1.171242   -0.801276    0.031733   -0.010283    0.028256    0.339389
N     0.012804   -1.463659    0.116396    0.000072   -0.001999   -0.025802
C    -1.138131   -0.727113    0.034795    0.003273   -0.007568   -0.090862
N    -0.986818    0.674457   -0.096016   -0.003118    0.000234    0.020072
C     0.198337    1.422559   -0.114368    0.000895   -0.002992   -0.042831
O    -2.278429   -1.195491    0.024392    0.000462    0.002345    0.018970
O     0.157273    2.653751   -0.226345   -0.000031    0.001361    0.008764
H     2.063830   -1.402362    0.483067    0.048985   -0.161000   -1.907761
H    -1.848457    1.207424   -0.169988   -0.007977   -0.003659    0.050844
H     2.349588    1.028738   -0.102662   -0.006807    0.031738    0.432376
11
* Frequency(19)  991.6869
C     1.356105    0.578150    0.009993    0.006223   -0.009419   -0.116404
C     1.172177   -0.803845    0.000875   -0.010283    0.028256    0.339389
N     0.012798   -1.463478    0.118742    0.000072   -0.001999   -0.025802
C    -1.138429   -0.726425    0.043056    0.003273   -0.007568   -0.090862
N    -0.986534    0.674436   -0.097841   -0.003118    0.000234    0.020072
C     0.198256    1.422831   -0.110474    0.000895   -0.002992   -0.042831
O    -2.278471   -1.195704    0.022667    0.000462    0.002345    0.018970
O     0.157276    2.653628   -0.227142   -0.000031    0.001361    0.008764
H     2.059377   -1.387724    0.656524    0.048985   -0.161000   -1.907761
H    -1.847732    1.207757   -0.174611   -0.007977   -0.003659    0.050844
H     2.350207    1.025852   -0.141974   -0.006807    0.031738    0.432376
11
* Frequency(19)  991.6869
C     1.355713    0.578743    0.017328    0.006223   -0.009419   -0.116404
C     1.172825   -0.805626   -0.020512   -0.010283    0.028256    0.339389
N     0.012793   -1.463352    0.120368    0.000072   -0.001999   -0.025802
C    -1.138635   -0.725948    0.048782    0.003273   -0.007568   -0.090862
N    -0.986338    0.674421   -0.099106   -0.003118    0.000234    0.020072
C     0.198200    1.423019   -0.107774    0.000895   -0.002992   -0.042831
O    -2.278501   -1.195852    0.021472    0.000462    0.002345    0.018970
O     0.157277    2.653542   -0.227695   -0.000031    0.001361    0.008764
H     2.056290   -1.377578    0.776746    0.048985   -0.161000   -1.907761
H    -1.847229    1.207987   -0.177815   -0.007977   -0.003659    0.050844
H     2.350636    1.023852   -0.169222   -0.006807    0.031738    0.432376
11
* Frequency(19)  991.6869
C     1.355537    0.579010    0.020621    0.006223   -0.009419   -0.116404
C     1.173116   -0.806425   -0.030111   -0.010283    0.028256    0.339389
N     0.012791   -1.463295    0.121098    0.000072   -0.001999   -0.025802
C    -1.138728   -0.725734    0.051352    0.003273   -0.007568   -0.090862
N    -0.986250    0.674415   -0.099674   -0.003118    0.000234    0.020072
C     0.198174    1.423104   -0.106563    0.000895   -0.002992   -0.042831
O    -2.278514   -1.195918    0.020935    0.000462    0.002345    0.018970
O     0.157278    2.653503   -0.227942   -0.000031    0.001361    0.008764
H     2.054904   -1.373024    0.830705    0.048985   -0.161000   -1.907761
H    -1.847003    1.208091   -0.179253   -0.007977   -0.003659    0.050844
H     2.350828    1.022954   -0.181451   -0.006807    0.031738    0.432376
11
* Frequency(19)  991.6869
C     1.355596    0.578920    0.019513    0.006223   -0.009419   -0.116404
C     1.173018   -0.806156   -0.026882   -0.010283    0.028256    0.339389
N     0.012792   -1.463314    0.120852    0.000072   -0.001999   -0.025802
C    -1.138696   -0.725806    0.050487    0.003273   -0.007568   -0.090862
N    -0.986279    0.674417   -0.099483   -0.003118    0.000234    0.020072
C     0.198183    1.423075   -0.106971    0.000895   -0.002992   -0.042831
O    -2.278509   -1.195896    0.021116    0.000462    0.002345    0.018970
O     0.157278    2.653516   -0.227859   -0.000031    0.001361    0.008764
H     2.055370   -1.374556    0.812554    0.048985   -0.161000   -1.907761
H    -1.847079    1.208056   -0.178769   -0.007977   -0.003659    0.050844
H     2.350764    1.023256   -0.177337   -0.006807    0.031738    0.432376
11
* Frequency(19)  991.6869
C     1.355884    0.578484    0.014126    0.006223   -0.009419   -0.116404
C     1.172542   -0.804849   -0.011175   -0.010283    0.028256    0.339389
N     0.012795   -1.463407    0.119658    0.000072   -0.001999   -0.025802
C    -1.138545   -0.726157    0.046282    0.003273   -0.007568   -0.090862
N    -0.986424    0.674428   -0.098554   -0.003118    0.000234    0.020072
C     0.198224    1.422937   -0.108953    0.000895   -0.002992   -0.042831
O    -2.278488   -1.195787    0.021994    0.000462    0.002345    0.018970
O     0.157277    2.653579   -0.227453   -0.000031    0.001361    0.008764
H     2.057637   -1.382007    0.724259    0.048985   -0.161000   -1.907761
H    -1.847448    1.207887   -0.176416   -0.007977   -0.003659    0.050844
H     2.350449    1.024725   -0.157326   -0.006807    0.031738    0.432376
11
* Frequency(19)  991.6869
C     1.356370    0.577749    0.005042    0.006223   -0.009419   -0.116404
C     1.171739   -0.802644    0.015309   -0.010283    0.028256    0.339389
N     0.012801   -1.463563    0.117645    0.000072   -0.001999   -0.025802
C    -1.138290   -0.726747    0.039192    0.003273   -0.007568   -0.090862
N    -0.986667    0.674446   -0.096988   -0.003118    0.000234    0.020072
C     0.198294    1.422704   -0.112295    0.000895   -0.002992   -0.042831
O    -2.278452   -1.195604    0.023474    0.000462    0.002345    0.018970
O     0.157274    2.653685   -0.226770   -0.000031    0.001361    0.008764
H     2.061460   -1.394571    0.575389    0.048985   -0.161000   -1.907761
H    -1.848071    1.207601   -0.172449   -0.007977   -0.003659    0.050844
H     2.349917    1.027202   -0.123586   -0.006807    0.031738    0.432376
11
* Frequency(19)  991.6869
C     1.357000    0.576795   -0.006753    0.006223   -0.009419   -0.116404
C     1.170697   -0.799781    0.049699   -0.010283    0.028256    0.339389
N     0.012808   -1.463765    0.115030    0.000072   -0.001999   -0.025802
C    -1.137958   -0.727514    0.029985    0.003273   -0.007568   -0.090862
N    -0.986983    0.674470   -0.094954   -0.003118    0.000234    0.020072
C     0.198385    1.422400   -0.116635    0.000895   -0.002992   -0.042831
O    -2.278405   -1.195367    0.025396    0.000462    0.002345    0.018970
O     0.157271    2.653823   -0.225882   -0.000031    0.001361    0.008764
H     2.066424   -1.410885    0.382077    0.048985   -0.161000   -1.907761
H    -1.848879    1.207230   -0.167297   -0.007977   -0.003659    0.050844
H     2.349228    1.030418   -0.079773   -0.006807    0.031738    0.432376
11
* Frequency(19)  991.6869
C     1.357708    0.575724   -0.019982    0.006223   -0.009419   -0.116404
C     1.169529   -0.796569    0.088269   -0.010283    0.028256    0.339389
N     0.012816   -1.463992    0.112098    0.000072   -0.001999   -0.025802
C    -1.137586   -0.728374    0.019659    0.003273   -0.007568   -0.090862
N    -0.987337    0.674496   -0.092673   -0.003118    0.000234    0.020072
C     0.198487    1.422060   -0.121503    0.000895   -0.002992   -0.042831
O    -2.278352   -1.195100    0.027552    0.000462    0.002345    0.018970
O     0.157268    2.653978   -0.224886   -0.000031    0.001361    0.008764
H     2.071990   -1.429182    0.165269    0.048985   -0.161000   -1.907761
H    -1.849786    1.206815   -0.161518   -0.007977   -0.003659    0.050844
H     2.348454    1.034025   -0.030636   -0.006807    0.031738    0.432376
