
                                 *****************
                                 * O   R   C   A *
                                 *****************

                                            #,                                       
                                            ###                                      
                                            ####                                     
                                            #####                                    
                                            ######                                   
                                           ########,                                 
                                     ,,################,,,,,                         
                               ,,#################################,,                 
                          ,,##########################################,,             
                       ,#########################################, ''#####,          
                    ,#############################################,,   '####,        
                  ,##################################################,,,,####,       
                ,###########''''           ''''###############################       
              ,#####''   ,,,,##########,,,,          '''####'''          '####       
            ,##' ,,,,###########################,,,                        '##       
           ' ,,###''''                  '''############,,,                           
         ,,##''                                '''############,,,,        ,,,,,,###''
      ,#''                                            '''#######################'''  
     '                                                          ''''####''''         
             ,#######,   #######,   ,#######,      ##                                
            ,#'     '#,  ##    ##  ,#'     '#,    #''#        ,####,    ,#,          
            ##       ##  ##   ,#'  ##            #'  '#       #'       ,# #          
            ##       ##  #######   ##           ,######,      #####,      #          
            '#,     ,#'  ##    ##  '#,     ,#' ,#      #,     #,   #      #          
             '#######'   ##     ##  '#######'  #'      '#     '####' #    #          



                #########################################################
                #                        -***-                          #
                #          Department of theory and spectroscopy        #
                #                                                       #
                #                      Frank Neese                      #
                #                                                       #
                #     Directorship, Architecture, Infrastructure        #
                #                    SHARK, DRIVERS                     #
                #        Core code/Algorithms in most modules           #
                #                                                       #
                #        Max Planck Institute fuer Kohlenforschung      #
                #                Kaiser Wilhelm Platz 1                 #
                #                 D-45470 Muelheim/Ruhr                 #
                #                      Germany                          #
                #                                                       #
                #                  All rights reserved                  #
                #                        -***-                          #
                #########################################################


                         Program Version 6.1.0-f.0  -   RELEASE   -


 With contributions from (in alphabetic order):
[Max-Planck-Institut fuer Kohlenforschung]                               
  Daniel Aravena         : Magnetic Suceptibility                        
  Michael Atanasov       : Ab Initio Ligand Field Theory (pilot matlab implementation)
  Alexander A. Auer      : GIAO ZORA, VPT2 properties, NMR spectrum      
  Ute Becker             : All parallelization in ORCA, NUMFREQ, NUMCALC 
  Giovanni Bistoni       : ED, misc. LED, open-shell LED, HFLD           
  Dmytro Bykov           : pre 5.0 version of the SCF Hessian            
  Marcos Casanova-Páez   : Triplet and SCS-CIS(D). UHF-(DLPNO)-IP/EA/STEOM-CCSD. UHF-CVS-IP/STEOM-CCSD   
  Vijay G. Chilkuri      : MRCI spin determinant printing, contributions to CSF-ICE 
  Pauline Colinet        : FMM embedding                                 
  Dipayan Datta          : RHF DLPNO-CCSD density                        
  Achintya Kumar Dutta   : EOM-CC, STEOM-CC                              
  Nicolas Foglia         : Exact transition moments, OPA infrastructure, MCD improvements    
  Dmitry Ganyushin       : Spin-Orbit,Spin-Spin,Magnetic field MRCI      
  Miquel Garcia-Rates    : C-PCM and meta-GGA Hessian, CCSD/C-PCM, Gaussian charge scheme 
  Tiago L. C. Gouveia    : GS-ROHF, GS-ROCIS                             
  Yang Guo               : DLPNO-NEVPT2, F12-NEVPT2, CIM, IAO-localization        
  Andreas Hansen         : Spin unrestricted coupled pair/coupled cluster methods 
  Ingolf Harden          : AUTO-CI MPn and infrastructure                
  Benjamin Helmich-Paris : MC-RPA, TRAH-(SCF,CASSCF), AVAS, COSX integrals, SCF dyn. polar., MC-PDFT, srDFT 
  Lee Huntington         : MR-EOM, pCC                                   
  Robert Izsak           : Overlap fitted RIJCOSX, COSX-SCS-MP3, EOM     
  Riya Kayal             : Wick's Theorem for AUTO-CI, AUTO-CI UHF-CCSDT 
  Emily Kempfer          : AUTO-CI RHF CISDT and CCSDT, approximate NEVPT4
  Christian Kollmar      : KDIIS, OOCD, Brueckner-CCSD(T), CCSD density, CASPT2, CASPT2-K, improved NEVPT2 
  Axel Koslowski         : Symmetry handling                             
  Simone Kossmann        : meta-GGA functionals, TD-DFT gradient, OOMP2, (MP2 Hessian; deprecated post 5.0) 
  Lucas Lang             : DCDCAS, Hyperfine gauge corrections, ICE-SOC+SSC
  Marvin Lechner         : AUTO-CI (C++ implementation), FIC-MRCC        
  Spencer Leger          : CASSCF response                               
  Dagmar Lenk            : GEPOL surface, SMD, ORCA-2-JSON               
  Dimitrios Liakos       : Extrapolation schemes; Compound Job, Property file
  Dimitrios Manganas     : Further ROCIS development; embedding schemes. LFT, Crystal Embedding 
  Dimitrios Pantazis     : SARC Basis sets                               
  Anastasios Papadopoulos: AUTO-CI, single reference methods and gradients 
  Taras Petrenko         : pre 6.0 DFT Hessian and TD-DFT gradient,  ECA, NRVS 
  Petra Pikulova         : Analytic Raman intensities                    
  Peter Pinski           : DLPNO-MP2, DLPNO-MP2 Gradient                 
  Shashank Vittal Rao    : ES-AILFT, MagRelax                            
  Christoph Reimann      : Effective Core Potentials                     
  Marius Retegan         : Local ZFS, SOC                                
  Christoph Riplinger    : Optimizer, TS searches, QM/MM, DLPNO-CCSD(T), (RO)-DLPNO pert. Triples 
  Michael Roemelt        : Original ROCIS implementation, recursive CI coupling coefficients
  Masaaki Saitow         : Open-shell DLPNO-CCSD energy and density      
  Barbara Sandhoefer     : DKH picture change effects                    
  Yorick L. A. Schmerwitz: GMF and freeze-and-release deltaSCF, NEB S-IDPP initial path                    
  Kantharuban Sivalingam : CASSCF convergence/infrastructure, NEVPT2, NEVPT3, NEVPT4(SD), FIC-MRCI and CEPA variants
  Bernardo de Souza      : ESD, SOC TD-DFT                               
  Georgi L. Stoychev     : AutoAux, RI-MP2 NMR, DLPNO-MP2 response, X2C  
  Van Anh Tran           : RI-MP2 g-tensors                              
  Willem Van den Heuvel  : Paramagnetic NMR                              
  Zikuan Wang            : NOTCH, Electric field optimization            
  Frank Wennmohs         : Technical directorship and infrastructure     
  Hang Xu                : AUTO-CI-Response properties                   
                                                                         
[FACCTs GmbH]                                                            
  Markus Bursch, Nicolas Foglia, Miquel Garcia-Rates, Ingolf Harden, Hagen Neugebauer, Anastasios Papadopoulos, 
  Christoph Riplinger, Bernardo de Souza, Georgi L. Stoychev                                                    
                                                                 
  APM, various basis sets, CI-OPT, improved COSX, DLPNO-Multilevel,           
  DOCKER, DRACO, updates on ESD, Fragmentator, GOAT, IRC, LR-CPCM, L-BFGS, MBIS, meta-GGA TD-DFT gradient, ML-optimized integration grids, 
  MM, NACMEs, nearIR, NEB, NEB-TS, NL-DFT gradient (VV10), 2- and 3-layer-ONIOM, interface openCOSMO-RS, QMMM,   
  Crystal-QMMM, RESP, rigid body optimization, SF, symmetry and pop. for TD-DFT, various functionals, SOLVATOR                                   
                                                                         
[Other institutions]                                                     
  V. Asgeirsson          : NEB                                           
  Christoph Bannwarth    : sTDA-DFT, sTD-DFT, PBEh-3c, B97-3c, D3        
  Giovanni Bistoni       : ETS/NOCV, ADLD/ADEX, COVALED                  
  Martin Brehm           : Molecular dynamics                            
  Ronald Cardenas        : ETS/NOCV                                      
  Martina Colucci        : COVALED                                       
  Sebastian Ehlert       : rSCAN, r2SCAN, r2SCAN-3c, D4, dhf basis sets  
  Marvin Friede          : D4 for Fr, Ra, Ac-Lr                          
  Lars Goerigk           : TD-DFT with DH, B97 family of functionals     
  Stefan Grimme          : VdW corrections, initial TS optimization, DFT functionals, gCP, sTDA/sTD-DF 
  Waldemar Hujo          : DFT-NL                                        
  H. Jonsson             : NEB                                           
  Holger Kruse           : gCP                                           
  Marcel Mueller         : wB97X-3c, vDZP basis set                      
  Hagen Neugebauer       : wr2SCAN, Native XTB                           
  Gianluca Regni         : ADLD/ADEX                                     
  Tobias Risthaus        : pre 6.0 range-separated hybrid DFT and stability analysis
  Lukas Wittmann         : regularized MP2, r2SCAN double-hybrids, wr2SCAN        
                                                                         
We gratefully acknowledge several colleagues who have allowed us to      
interface, adapt or use parts of their codes:                            
  Ed Valeev, F. Pavosevic, A. Kumar             : LibInt (2-el integral package), F12 methods 
  Garnet Chan, S. Sharma, J. Yang, R. Olivares  : DMRG                   
  Ulf Ekstrom                                   : XCFun DFT Library      
  Mihaly Kallay                                 : mrcc  (arbitrary order and MRCC methods)
  Frank Weinhold                                : gennbo (NPA and NBO analysis)           
  Simon Mueller                                 : openCOSMO-RS                            
  Christopher J. Cramer and Donald G. Truhlar   : smd solvation model                     
  S Lehtola, MJT Oliveira, MAL Marques          : LibXC Library                           
  Liviu Ungur et al                             : ANISO software                          


 Your calculation uses the libint2 library for the computation of 2-el integrals
 For citations please refer to: http://libint.valeyev.net

 Your ORCA version has been built with support for libXC version: 7.0.0
 For citations please refer to: https://libxc.gitlab.io

 This ORCA versions uses:
   CBLAS   interface :  Fast vector & matrix operations
   LAPACKE interface :  Fast linear algebra routines
   SCALAPACK package :  Parallel linear algebra routines
   Shared memory     :  Shared parallel matrices
   BLAS/LAPACK       :  OpenBLAS 0.3.29  USE64BITINT DYNAMIC_ARCH NO_AFFINITY Cooperlake SINGLE_THREADED
        Core in use  :  Cooperlake
   Copyright (c) 2011-2014, The OpenBLAS Project


  ***********************************
  * Starting time: Fri Jul 18 12:39:06 2025
  * Host name:     abcsim-001
  * Process ID:    939828
  * Working dir.:  /home/vhpaschoal/orca_test/Uracil/Vacuo/Uracil_m1
  ***********************************

Warning: RI is on but no J-basis has been assigned. Assigning Def2/J (nothing to worry about!)
================================================================================

----- Orbital basis set information -----
Your calculation utilizes the basis: def2-SVP
   F. Weigend and R. Ahlrichs, Phys. Chem. Chem. Phys. 7, 3297 (2005).

----- AuxJ basis set information -----
Your calculation utilizes the auxiliary basis: def2/J
   H-Rn: F. Weigend, Phys. Chem. Chem. Phys. 8, 1057 (2006).
   Fr-Lr: K. Eichkorn, F. Weigend, O. Treutler, R. Ahlrichs; Theor. Chem. Acc. 97, 119 (1997).

================================================================================
                                        WARNINGS
                       Please study these warnings very carefully!
================================================================================


WARNING: Geometry Optimization
  ===> : Switching off AutoStart
         For restart on a previous wavefunction, please use MOREAD

================================================================================
                                       INPUT FILE
================================================================================
NAME = Uracil_m1.inp
|  1> !B3LYP def2-SVP OPT FREQ pal16
|  2> * xyz -1 1
|  3>    C        1.33878        0.51508       -0.01708
|  4>    C        1.24526       -0.81240        0.09268
|  5>    N       -0.02415       -1.41966        0.11620
|  6>    C       -1.17237       -0.61743        0.00888
|  7>    N       -1.05625        0.71979       -0.10636
|  8>    C        0.13881        1.36406       -0.11760
|  9>    O       -2.19305       -1.27075        0.03788
| 10>    O        0.23534        2.57757       -0.20466
| 11>    H        2.15069       -1.41636        0.16463
| 12>    H       -1.89431        1.28315       -0.17534
| 13>    H        2.29444        1.03083       -0.03758
| 14> **                         ****END OF INPUT****
================================================================================

                       *****************************
                       * Geometry Optimization Run *
                       *****************************

Geometry optimization settings:
Update method            Update   .... BFGS
Choice of coordinates    CoordSys .... (2022) Redundant Internals
Initial Hessian          InHess   .... Almloef's Model
Max. no of cycles        MaxIter  .... 50

Convergence Tolerances:
Energy Change            TolE     ....  5.0000e-06 Eh
Max. Gradient            TolMAXG  ....  3.0000e-04 Eh/bohr
RMS Gradient             TolRMSG  ....  1.0000e-04 Eh/bohr
Max. Displacement        TolMAXD  ....  4.0000e-03 bohr
RMS Displacement         TolRMSD  ....  2.0000e-03 bohr
Strict Convergence                .... False

------------------------------------------------------------------------------
                        ORCA OPTIMIZATION COORDINATE SETUP
------------------------------------------------------------------------------

The optimization will be done in redundant internal coordinates (2022)
Making redundant internal coordinates   ...  (2022 redundants) done
Evaluating the initial hessian          ...  (Almloef) done
Evaluating the coordinates              ...  done
Calculating the B-matrix                .... done
Calculating the G-matrix                .... done
The number of degrees of freedom        ....   47

    -----------------------------------------------------------------
                    Redundant Internal Coordinates


    -----------------------------------------------------------------
         Definition                    Initial Value    Approx d2E/dq
    -----------------------------------------------------------------
      1. B(C   1,C   0)                  1.3353         0.763883   
      2. B(N   2,C   1)                  1.4074         0.524984   
      3. B(C   3,N   2)                  1.4048         0.529959   
      4. B(N   4,C   3)                  1.3472         0.654901   
      5. B(C   5,N   4)                  1.3577         0.630073   
      6. B(C   5,C   0)                  1.4734         0.459979   
      7. B(O   6,C   3)                  1.2122         1.075292   
      8. B(O   7,C   5)                  1.2205         1.043225   
      9. B(H   8,C   1)                  1.0908         0.359102   
     10. B(H   9,N   4)                  1.0122         0.429281   
     11. B(H  10,C   0)                  1.0861         0.365240   
     12. A(C   1,C   0,C   5)          121.4273         0.427120   
     13. A(C   1,C   0,H  10)          122.3604         0.366563   
     14. A(C   5,C   0,H  10)          116.2123         0.336458   
     15. A(N   2,C   1,H   8)          120.5772         0.340907   
     16. A(C   0,C   1,N   2)          119.5712         0.434522   
     17. A(C   0,C   1,H   8)          119.8515         0.365500   
     18. A(C   1,N   2,C   3)          119.3104         0.404463   
     19. A(N   2,C   3,N   4)          120.1931         0.420653   
     20. A(N   4,C   3,O   6)          127.5593         0.478255   
     21. A(N   2,C   3,O   6)          112.2474         0.460044   
     22. A(C   5,N   4,H   9)          117.6530         0.359167   
     23. A(C   3,N   4,H   9)          119.1391         0.361541   
     24. A(C   3,N   4,C   5)          123.2019         0.433900   
     25. A(C   0,C   5,N   4)          116.2877         0.410035   
     26. A(N   4,C   5,O   7)          122.8224         0.472229   
     27. A(C   0,C   5,O   7)          120.8900         0.448847   
     28. D(N   2,C   1,C   0,C   5)     -0.1322         0.041764   
     29. D(H   8,C   1,C   0,H  10)     -0.0495         0.041764   
     30. D(N   2,C   1,C   0,H  10)    179.8668         0.041764   
     31. D(H   8,C   1,C   0,C   5)    179.9514         0.041764   
     32. D(C   3,N   2,C   1,H   8)   -179.3957         0.019858   
     33. D(C   3,N   2,C   1,C   0)      0.6885         0.019858   
     34. D(N   4,C   3,N   2,C   1)     -0.4339         0.020250   
     35. D(O   6,C   3,N   2,C   1)    179.7146         0.020250   
     36. D(H   9,N   4,C   3,O   6)      0.3028         0.035048   
     37. D(H   9,N   4,C   3,N   2)   -179.5238         0.035048   
     38. D(C   5,N   4,C   3,O   6)    179.3964         0.035048   
     39. D(C   5,N   4,C   3,N   2)     -0.4302         0.035048   
     40. D(O   7,C   5,C   0,C   1)    179.2909         0.014413   
     41. D(N   4,C   5,C   0,H  10)    179.3277         0.014413   
     42. D(N   4,C   5,C   0,C   1)     -0.6732         0.014413   
     43. D(O   7,C   5,N   4,H   9)      0.0995         0.032229   
     44. D(O   7,C   5,N   4,C   3)   -179.0068         0.032229   
     45. D(C   0,C   5,N   4,H   9)   -179.9371         0.032229   
     46. D(C   0,C   5,N   4,C   3)      0.9566         0.032229   
     47. D(O   7,C   5,C   0,H  10)     -0.7082         0.014413   
    -----------------------------------------------------------------

Number of atoms                         .... 11
Number of degrees of freedom            .... 47


         *************************************************************
         *                GEOMETRY OPTIMIZATION CYCLE   1            *
         *************************************************************
---------------------------------
CARTESIAN COORDINATES (ANGSTROEM)
---------------------------------
  C      1.338780    0.515080   -0.017080
  C      1.245260   -0.812400    0.092680
  N     -0.024150   -1.419660    0.116200
  C     -1.172370   -0.617430    0.008880
  N     -1.056250    0.719790   -0.106360
  C      0.138810    1.364060   -0.117600
  O     -2.193050   -1.270750    0.037880
  O      0.235340    2.577570   -0.204660
  H      2.150690   -1.416360    0.164630
  H     -1.894310    1.283150   -0.175340
  H      2.294440    1.030830   -0.037580

----------------------------
CARTESIAN COORDINATES (A.U.)
----------------------------
  NO LB      ZA    FRAG     MASS         X           Y           Z
   0 C     6.0000    0    12.011    2.529928    0.973360   -0.032277
   1 C     6.0000    0    12.011    2.353200   -1.535214    0.175140
   2 N     7.0000    0    14.007   -0.045637   -2.682769    0.219586
   3 C     6.0000    0    12.011   -2.215458   -1.166774    0.016781
   4 N     7.0000    0    14.007   -1.996023    1.360206   -0.200991
   5 C     6.0000    0    12.011    0.262313    2.577700   -0.222232
   6 O     8.0000    0    15.999   -4.144264   -2.401369    0.071583
   7 O     8.0000    0    15.999    0.444728    4.870901   -0.386751
   8 H     1.0000    0     1.008    4.064215   -2.676533    0.311106
   9 H     1.0000    0     1.008   -3.579727    2.424802   -0.331345
  10 H     1.0000    0     1.008    4.335863    1.947986   -0.071016

--------------------------------
INTERNAL COORDINATES (ANGSTROEM)
--------------------------------
 C      0   0   0     0.000000000000     0.00000000     0.00000000
 C      1   0   0     1.335288882003     0.00000000     0.00000000
 N      2   1   0     1.407380419823   119.57115907     0.00000000
 C      3   2   1     1.404813056495   119.31044904     0.68851628
 N      4   3   2     1.347190202013   120.19312262   359.56613162
 C      5   4   3     1.357710784409   123.20192506   359.56982096
 O      4   3   2     1.212211072710   112.24738041   179.71462617
 O      6   5   4     1.220452377031   122.82236896   180.99322907
 H      2   1   3     1.090755687127   119.85153982   180.08361692
 H      5   4   3     1.012164657356   119.13913307   180.47615880
 H      1   2   3     1.086141955777   122.36044792   179.86684319

---------------------------
INTERNAL COORDINATES (A.U.)
---------------------------
 C      0   0   0     0.000000000000     0.00000000     0.00000000
 C      1   0   0     2.523330296655     0.00000000     0.00000000
 N      2   1   0     2.659563559708   119.57115907     0.00000000
 C      3   2   1     2.654711946133   119.31044904     0.68851628
 N      4   3   2     2.545820532107   120.19312262   359.56613162
 C      5   4   3     2.565701551604   123.20192506   359.56982096
 O      4   3   2     2.290746943928   112.24738041   179.71462617
 O      6   5   4     2.306320752081   122.82236896   180.99322907
 H      2   1   3     2.061229527687   119.85153982   180.08361692
 H      5   4   3     1.912714004837   119.13913307   180.47615880
 H      1   2   3     2.052510838981   122.36044792   179.86684319

---------------------
BASIS SET INFORMATION
---------------------
There are 4 groups of distinct atoms

 Group   1 Type C   : 7s4p1d contracted to 3s2p1d pattern {511/31/1}
 Group   2 Type N   : 7s4p1d contracted to 3s2p1d pattern {511/31/1}
 Group   3 Type O   : 7s4p1d contracted to 3s2p1d pattern {511/31/1}
 Group   4 Type H   : 4s1p contracted to 2s1p pattern {31/1}

Atom   0C    basis set group =>   1
Atom   1C    basis set group =>   1
Atom   2N    basis set group =>   2
Atom   3C    basis set group =>   1
Atom   4N    basis set group =>   2
Atom   5C    basis set group =>   1
Atom   6O    basis set group =>   3
Atom   7O    basis set group =>   3
Atom   8H    basis set group =>   4
Atom   9H    basis set group =>   4
Atom  10H    basis set group =>   4
---------------------------------
AUXILIARY/J BASIS SET INFORMATION
---------------------------------
There are 4 groups of distinct atoms

 Group   1 Type C   : 12s5p4d2f1g contracted to 6s4p3d1f1g pattern {711111/2111/211/2/1}
 Group   2 Type N   : 12s5p4d2f1g contracted to 6s4p3d1f1g pattern {711111/2111/211/2/1}
 Group   3 Type O   : 12s5p4d2f1g contracted to 6s4p3d1f1g pattern {711111/2111/211/2/1}
 Group   4 Type H   : 5s2p1d contracted to 3s1p1d pattern {311/2/1}

Atom   0C    basis set group =>   1
Atom   1C    basis set group =>   1
Atom   2N    basis set group =>   2
Atom   3C    basis set group =>   1
Atom   4N    basis set group =>   2
Atom   5C    basis set group =>   1
Atom   6O    basis set group =>   3
Atom   7O    basis set group =>   3
Atom   8H    basis set group =>   4
Atom   9H    basis set group =>   4
Atom  10H    basis set group =>   4


           ************************************************************
           *        Program running with 16 parallel MPI-processes    *
           *              working on a common directory               *
           ************************************************************
------------------------------------------------------------------------------
                             ORCA STARTUP CALCULATIONS
                           -- RI-GTO INTEGRALS CHOSEN --
------------------------------------------------------------------------------
------------------------------------------------------------------------------
                   ___                                                        
                  /   \      - P O W E R E D   B Y -                         
                 /     \                                                     
                 |  |  |   _    _      __       _____    __    __             
                 |  |  |  | |  | |    /  \     |  _  \  |  |  /  |          
                  \  \/   | |  | |   /    \    | | | |  |  | /  /          
                 / \  \   | |__| |  /  /\  \   | |_| |  |  |/  /          
                |  |  |   |  __  | /  /__\  \  |    /   |      \           
                |  |  |   | |  | | |   __   |  |    \   |  |\   \          
                \     /   | |  | | |  |  |  |  | |\  \  |  | \   \       
                 \___/    |_|  |_| |__|  |__|  |_| \__\ |__|  \__/        
                                                                              
                      - O R C A' S   B I G   F R I E N D -                    
                                      &                                       
                       - I N T E G R A L  F E E D E R -                       
                                                                              
 v1 FN, 2020, v2 2021, v3 2022-2024                                           
------------------------------------------------------------------------------


----------------------
SHARK INTEGRAL PACKAGE
----------------------

Number of atoms                             ...     11
Number of basis functions                   ...    127
Number of shells                            ...     57
Maximum angular momentum                    ...      2
Integral batch strategy                     ... SHARK/LIBINT Hybrid
RI-J (if used) integral strategy            ... SPLIT-RIJ (Revised 2003 algorithm where possible)
Printlevel                                  ...      1
Contraction scheme used                     ... SEGMENTED contraction
Prescreening option                         ... SCHWARTZ
   Thresh                                   ... 2.500e-11
   Tcut                                     ... 2.500e-12
   Tpresel                                  ... 2.500e-12 
Coulomb Range Separation                    ... NOT USED
Exchange Range Separation                   ... NOT USED
Multipole approximations                    ... NOT USED
Finite Nucleus Model                        ... NOT USED
CABS basis                                  ... NOT available
Auxiliary Coulomb fitting basis             ... AVAILABLE
   # of basis functions in Aux-J            ...    425
   # of shells in Aux-J                     ...    135
   Maximum angular momentum in Aux-J        ...      4
Auxiliary J/K fitting basis                 ... NOT available
Auxiliary Correlation fitting basis         ... NOT available
Auxiliary 'external' fitting basis          ... NOT available

Checking pre-screening integrals            ... done (  0.0 sec) Dimension = 57
   => SHARK Basis and OBASIS are compatible. Storing Pre-screening
Shell pair information
Shell pair cut-off parameter TPreSel        ...   2.5e-12
Total number of shell pairs                 ...      1653
Shell pairs after pre-screening             ...      1571
Total number of primitive shell pairs       ...      6329
Primitive shell pairs kept                  ...      4483
          la=0 lb=0:    432 shell pairs
          la=1 lb=0:    549 shell pairs
          la=1 lb=1:    185 shell pairs
          la=2 lb=0:    223 shell pairs
          la=2 lb=1:    147 shell pairs
          la=2 lb=2:     35 shell pairs

Checking whether 4 symmetric matrices of dimension 127 fit in memory
:Max Core in MB      =   4096.00
 MB in use           =      5.39
 MB left             =   4090.61
 MB needed           =      0.25
 Data fit in memory  = YES
Calculating RI/J V-Matrix + Cholesky decomp.... done (  0.0 sec)
Calculating Nuclear repulsion               ... done (  0.0 sec) ENN=    345.756631324241 Eh

Diagonalization of the overlap matrix:
Smallest eigenvalue                        ... 1.297e-03
Time for diagonalization                   ...    0.001 sec
Threshold for overlap eigenvalues          ... 1.000e-07
Number of eigenvalues below threshold      ... 0
Time for construction of square roots      ...    0.000 sec
Total time needed                          ...    0.002 sec

-------------------
DFT GRID GENERATION
-------------------

General Integration Accuracy     IntAcc      ... 4.388
Radial Grid Type                 RadialGrid  ... OptM3 with GC (2021)
Angular Grid (max. ang.)         AngularGrid ... 4 (Lebedev-302)
Angular grid pruning method      GridPruning ... 4 (adaptive)
Weight generation scheme         WeightScheme... mBecke (2022)
Basis function cutoff            BFCut       ... 1.0000e-11
Integration weight cutoff        WCut        ... 1.0000e-14
Partially contracted basis set               ... off
Rotationally invariant grid construction     ... off
Angular grids for H and He will be reduced by one unit

Total number of grid points                  ...    58085
Total number of batches                      ...      911
Average number of points per batch           ...       63
Average number of grid points per atom       ...     5280

--------------------
COSX GRID GENERATION
--------------------

GRIDX 1
-------
General Integration Accuracy     IntAcc      ... 3.816
Radial Grid Type                 RadialGrid  ... OptM3 with GC (2021)
Angular Grid (max. ang.)         AngularGrid ... 1 (Lebedev-50)
Angular grid pruning method      GridPruning ... 4 (adaptive)
Weight generation scheme         WeightScheme... mBecke (2022)
Basis function cutoff            BFCut       ... 1.0000e-11
Integration weight cutoff        WCut        ... 1.0000e-14
Partially contracted basis set               ... on
Rotationally invariant grid construction     ... off
Angular grids for H and He will be reduced by one unit

Total number of grid points                  ...     7384
Total number of batches                      ...       64
Average number of points per batch           ...      115
Average number of grid points per atom       ...      671
UseSFitting                                  ... on

GRIDX 2
-------
General Integration Accuracy     IntAcc      ... 4.020
Radial Grid Type                 RadialGrid  ... OptM3 with GC (2021)
Angular Grid (max. ang.)         AngularGrid ... 2 (Lebedev-110)
Angular grid pruning method      GridPruning ... 4 (adaptive)
Weight generation scheme         WeightScheme... mBecke (2022)
Basis function cutoff            BFCut       ... 1.0000e-11
Integration weight cutoff        WCut        ... 1.0000e-14
Partially contracted basis set               ... on
Rotationally invariant grid construction     ... off
Angular grids for H and He will be reduced by one unit

Total number of grid points                  ...    16874
Total number of batches                      ...      139
Average number of points per batch           ...      121
Average number of grid points per atom       ...     1534
UseSFitting                                  ... on

GRIDX 3
-------
General Integration Accuracy     IntAcc      ... 4.338
Radial Grid Type                 RadialGrid  ... OptM3 with GC (2021)
Angular Grid (max. ang.)         AngularGrid ... 3 (Lebedev-194)
Angular grid pruning method      GridPruning ... 4 (adaptive)
Weight generation scheme         WeightScheme... mBecke (2022)
Basis function cutoff            BFCut       ... 1.0000e-11
Integration weight cutoff        WCut        ... 1.0000e-14
Partially contracted basis set               ... on
Rotationally invariant grid construction     ... off
Angular grids for H and He will be reduced by one unit

Total number of grid points                  ...    37343
Total number of batches                      ...      296
Average number of points per batch           ...      126
Average number of grid points per atom       ...     3395
UseSFitting                                  ... on
Grids setup in   0.3 sec
Initializing property integral containers    ... done (  0.0 sec)

SHARK setup successfully completed in   0.4 seconds

Maximum memory used throughout the entire STARTUP-calculation: 15.4 MB


           ************************************************************
           *        Program running with 16 parallel MPI-processes    *
           *              working on a common directory               *
           ************************************************************
-------------------------------------------------------------------------------
                                 ORCA GUESS
                   Start orbitals & Density for SCF / CASSCF
-------------------------------------------------------------------------------

------------
SCF SETTINGS
------------
Hamiltonian:
 Density Functional     Method          .... DFT(GTOs)
 Exchange Functional    Exchange        .... B88
   X-Alpha parameter    XAlpha          ....  0.666667
   Becke's b parameter  XBeta           ....  0.004200
 Correlation Functional Correlation     .... LYP
 LDA part of GGA corr.  LDAOpt          .... VWN-5
 Gradients option       PostSCFGGA      .... off
 Hybrid DFT is turned on
   Fraction HF Exchange ScalHFX         ....  0.200000
   Scaling of DF-GGA-X  ScalDFX         ....  0.720000
   Scaling of DF-GGA-C  ScalDFC         ....  0.810000
   Scaling of DF-LDA-C  ScalLDAC        ....  1.000000
   Perturbative correction              ....  0.000000
   NL short-range parameter             ....  4.800000
 RI-approximation to the Coulomb term is turned on
   Number of AuxJ basis functions       .... 425
   RIJ-COSX (HFX calculated with COS-X)).... on


General Settings:
 Integral files         IntName         .... Uracil_m1
 Hartree-Fock type      HFTyp           .... RHF
 Total Charge           Charge          ....   -1
 Multiplicity           Mult            ....    1
 Number of Electrons    NEL             ....   58
 Basis Dimension        Dim             ....  127
 Nuclear Repulsion      ENuc            ....    345.7566313242 Eh

Convergence Acceleration:
 AO-DIIS                CNVDIIS         .... on
   Start iteration      DIISMaxIt       ....    12
   Startup error        DIISStart       ....  0.200000
   # of expansion vecs  DIISMaxEq       ....     5
   Bias factor          DIISBfac        ....   1.050
   Max. coefficient     DIISMaxC        ....  10.000
 MO-DIIS                CNVKDIIS        .... off
 Trust-Rad. Augm. Hess. CNVTRAH         .... auto
   Auto Start mean grad. ratio tolernc. ....  1.125000
   Auto Start start iteration           ....    50
   Auto Start num. interpolation iter.  ....    10
   Max. Number of Micro iterations      ....    24
   Max. Number of Macro iterations      .... Maxiter - #DIIS iter
   Number of Davidson start vectors     ....     2
   Converg. threshold    (grad. norm)   ....   1.000e-05
   Grad. Scal. Fac. for Micro threshold ....   0.100
   Minimum threshold for Micro iter.    ....   1.000e-02
   NR start threshold (gradient norm)   ....   1.000e-04
   Initial trust radius                 ....   0.400
   Minimum AH scaling param. (alpha)    ....   1.000
   Maximum AH scaling param. (alpha)    .... 1000.000
   Quad. conv. algorithm                .... NR
   White noise on init. David. guess    .... on
   Maximum white noise                  ....   0.010
   Pseudo random numbers                .... off
   Inactive MOs                         .... canonical
   Orbital update algorithm             .... Taylor
   Preconditioner                       .... Diag
   Full preconditioner red. dimension   ....   250
 SOSCF                 CNVSOSCF           .... on
   Start iteration     SOSCFMaxIt         ....   150
   Startup grad/error  SOSCFStart         ....  0.003300
   Hessian update      SOSCFHessUp        .... L-BFGS
   Autom. constraints  SOSCFAutoConstrain .... off
 Level Shifting         CNVShift        .... on
   Level shift para.    LevelShift      ....    0.2500
   Turn off err/grad.   ShiftErr        ....    0.0010
 Zerner damping         CNVZerner       .... off
 Static damping         CNVDamp         .... on
   Fraction old density DampFac         ....    0.7000
   Max. Damping (<1)    DampMax         ....    0.9800
   Min. Damping (>=0)   DampMin         ....    0.0000
   Turn off err/grad.   DampErr         ....    0.1000

SCF Procedure:
 Maximum # iterations   MaxIter         ....   125
 SCF integral mode      SCFMode         .... Direct
   Integral package                     .... SHARK and LIBINT hybrid scheme
 Reset frequency        DirectResetFreq ....    20
 Integral Threshold     Thresh          ....  2.500e-11 Eh
 Primitive CutOff       TCut            ....  2.500e-12 Eh

Convergence Tolerance:
 Convergence Check Mode ConvCheckMode   .... Total+1el-Energy
 Convergence forced     ConvForced      .... 0
 Energy Change          TolE            ....  1.000e-08 Eh
 1-El. energy change                    ....  1.000e-05 Eh
 Orbital Gradient       TolG            ....  1.000e-05
 Orbital Rotation angle TolX            ....  1.000e-05
 DIIS Error             TolErr          ....  5.000e-07

------------------------------
INITIAL GUESS: MODEL POTENTIAL
------------------------------
Loading Hartree-Fock densities                     ... done
Calculating cut-offs                               ... done
Initializing the effective Hamiltonian             ... done
Setting up the integral package (SHARK)            ... done
Starting the Coulomb interaction                   ... done (   0.0 sec)
Making the grid                                    ... done (   0.0 sec)
Mapping shells                                     ... done
Starting the XC term evaluation                    ... done (   0.0 sec)
  promolecular density results
     # of electrons  =     56.997117875
     EX              =    -50.989342405
     EC              =     -2.000260752
     EX+EC           =    -52.989603157
Transforming the Hamiltonian                       ... done (   0.0 sec)
Diagonalizing the Hamiltonian                      ... done (   0.0 sec)
Back transforming the eigenvectors                 ... done (   0.0 sec)
Now organizing SCF variables                       ... done
                      ------------------
                      INITIAL GUESS DONE (   0.1 sec)
                      ------------------
             **** ENERGY FILE WAS UPDATED (Uracil_m1.en.tmp) ****
Finished Guess after   0.4 sec
Maximum memory used throughout the entire GUESS-calculation: 7.8 MB


           ************************************************************
           *        Program running with 16 parallel MPI-processes    *
           *              working on a common directory               *
           ************************************************************

-------------------------------------------------------------------------------------------
                                      ORCA LEAN-SCF
                              memory conserving SCF solver
-------------------------------------------------------------------------------------------

----------------------------------------D-I-I-S--------------------------------------------
Iteration    Energy (Eh)           Delta-E    RMSDP     MaxDP     DIISErr   Damp  Time(sec)
-------------------------------------------------------------------------------------------
               ***  Starting incremental Fock matrix formation  ***
    1    -413.3587161160314167     0.00e+00  3.17e-02  1.89e-01  3.04e-01  0.700   0.1
    2    -413.5297601806102534    -1.71e-01  2.05e-02  1.28e-01  1.23e-01  0.700   0.1
                               ***Turning on AO-DIIS***
    3    -413.5905722680210488    -6.08e-02  7.01e-03  2.77e-02  4.95e-02  0.700   0.1
    4    -413.6290075991839217    -3.84e-02  1.03e-02  3.19e-02  2.30e-02  0.000   0.1
    5    -413.7146184053172533    -8.56e-02  2.78e-03  1.62e-02  9.42e-03  0.000   0.1
                              *** Initializing SOSCF ***
---------------------------------------S-O-S-C-F--------------------------------------
Iteration    Energy (Eh)           Delta-E    RMSDP     MaxDP     MaxGrad    Time(sec)
--------------------------------------------------------------------------------------
    6    -413.7151873496885059    -5.69e-04  9.82e-04  3.96e-03  2.96e-03     0.1
               *** Restarting incremental Fock matrix formation ***
    7    -413.7152076856974077    -2.03e-05  9.54e-04  5.41e-03  6.06e-04     0.1
    8    -413.7151812327545599     2.65e-05  5.14e-04  2.84e-03  1.43e-03     0.1
    9    -413.7152211344936745    -3.99e-05  1.12e-04  4.14e-04  9.85e-05     0.1
   10    -413.7152210637006533     7.08e-08  5.00e-05  2.25e-04  1.15e-04     0.1
   11    -413.7152214257397986    -3.62e-07  2.44e-05  1.34e-04  1.82e-05     0.1
   12    -413.7152214187448749     6.99e-09  1.38e-05  7.84e-05  2.35e-05     0.1
                 **** Energy Check signals convergence ****

               *****************************************************
               *                     SUCCESS                       *
               *           SCF CONVERGED AFTER  12 CYCLES          *
               *****************************************************

Recomputing exchange energy using gridx3       ... done (    0.160 sec)
Old exchange energy                            :    -10.346426843 Eh
New exchange energy                            :    -10.346487036 Eh
Exchange energy change after final integration :     -0.000060192 Eh
Total energy after final integration           :   -413.715281627 Eh
             **** ENERGY FILE WAS UPDATED (Uracil_m1.en.tmp) ****

----------------
TOTAL SCF ENERGY
----------------

Total Energy       :       -413.71528162653146 Eh          -11257.76515 eV

Components:
Nuclear Repulsion  :        345.75663132424080 Eh            9408.51626 eV
Electronic Energy  :       -759.47185275836421 Eh          -20666.27977 eV
One Electron Energy:      -1260.50717502643715 Eh          -34300.14402 eV
Two Electron Energy:        501.03532226807295 Eh           13633.86425 eV

Virial components:
Potential Energy   :       -824.33108915600712 Eh          -22431.18932 eV
Kinetic Energy     :        410.61580752947566 Eh           11173.42417 eV
Virial Ratio       :          2.00754835551925

DFT components:
N(Alpha)           :       29.000007457832 electrons
N(Beta)            :       29.000007457832 electrons
N(Total)           :       58.000014915664 electrons
E(X)               :      -41.198847169924 Eh       
E(C)               :       -2.391234690159 Eh       
E(XC)              :      -43.590081860082 Eh       

---------------
SCF CONVERGENCE
---------------

  Last Energy change         ...   -6.9949e-09  Tolerance :   1.0000e-08
  Last MAX-Density change    ...    7.8422e-05  Tolerance :   1.0000e-07
  Last RMS-Density change    ...    1.3800e-05  Tolerance :   5.0000e-09
  Last DIIS Error            ...    2.9585e-03  Tolerance :   5.0000e-07
  Last Orbital Gradient      ...    2.3541e-05  Tolerance :   1.0000e-05
  Last Orbital Rotation      ...    2.4119e-05  Tolerance :   1.0000e-05


----------------
ORBITAL ENERGIES
----------------

  NO   OCC          E(Eh)            E(eV) 
   0   2.0000     -18.916041      -514.7316 
   1   2.0000     -18.891693      -514.0691 
   2   2.0000     -14.198492      -386.3606 
   3   2.0000     -14.095674      -383.5628 
   4   2.0000     -10.107769      -275.0464 
   5   2.0000     -10.105755      -274.9916 
   6   2.0000     -10.041905      -273.2541 
   7   2.0000      -9.989336      -271.8236 
   8   2.0000      -0.864773       -23.5317 
   9   2.0000      -0.832894       -22.6642 
  10   2.0000      -0.754201       -20.5229 
  11   2.0000      -0.673128       -18.3167 
  12   2.0000      -0.556870       -15.1532 
  13   2.0000      -0.469853       -12.7854 
  14   2.0000      -0.458347       -12.4723 
  15   2.0000      -0.367757       -10.0072 
  16   2.0000      -0.328272        -8.9327 
  17   2.0000      -0.291678        -7.9370 
  18   2.0000      -0.283735        -7.7208 
  19   2.0000      -0.250771        -6.8238 
  20   2.0000      -0.228753        -6.2247 
  21   2.0000      -0.210971        -5.7408 
  22   2.0000      -0.203428        -5.5355 
  23   2.0000      -0.141853        -3.8600 
  24   2.0000      -0.101054        -2.7498 
  25   2.0000      -0.086205        -2.3457 
  26   2.0000      -0.067909        -1.8479 
  27   2.0000      -0.055169        -1.5012 
  28   2.0000      -0.013875        -0.3775 
  29   0.0000       0.168936         4.5970 
  30   0.0000       0.218087         5.9344 
  31   0.0000       0.221427         6.0253 
  32   0.0000       0.233212         6.3460 
  33   0.0000       0.282983         7.7004 
  34   0.0000       0.330280         8.9874 
  35   0.0000       0.362863         9.8740 
  36   0.0000       0.390838        10.6352 
  37   0.0000       0.413708        11.2576 
  38   0.0000       0.461984        12.5712 
  39   0.0000       0.482164        13.1204 
*Only the first 10 virtual orbitals were printed.

                    ********************************
                    * MULLIKEN POPULATION ANALYSIS *
                    ********************************

-----------------------
MULLIKEN ATOMIC CHARGES
-----------------------
   0 C :   -0.159172
   1 C :    0.102617
   2 N :   -0.314787
   3 C :    0.005447
   4 N :   -0.013887
   5 C :    0.073988
   6 O :   -0.288935
   7 O :   -0.313004
   8 H :   -0.074612
   9 H :    0.076608
  10 H :   -0.094264
Sum of atomic charges:   -1.0000000

--------------------------------
MULLIKEN REDUCED ORBITAL CHARGES
--------------------------------
  0 C s       :     3.203004  s :     3.203004
      pz      :     1.219190  p :     2.926446
      px      :     0.866133
      py      :     0.841124
      dz2     :     0.002638  d :     0.029722
      dxz     :     0.001554
      dyz     :     0.004870
      dx2y2   :     0.008902
      dxy     :     0.011757

  1 C s       :     3.107628  s :     3.107628
      pz      :     0.947509  p :     2.734510
      px      :     0.859900
      py      :     0.927100
      dz2     :     0.003345  d :     0.055246
      dxz     :     0.006620
      dyz     :     0.010163
      dx2y2   :     0.016620
      dxy     :     0.018497

  2 N s       :     3.569419  s :     3.569419
      pz      :     1.324393  p :     3.723264
      px      :     0.912919
      py      :     1.485952
      dz2     :     0.003181  d :     0.022104
      dxz     :     0.002676
      dyz     :     0.003149
      dx2y2   :     0.003071
      dxy     :     0.010027

  3 C s       :     3.035127  s :     3.035127
      pz      :     0.893846  p :     2.823530
      px      :     0.967719
      py      :     0.961965
      dz2     :     0.007231  d :     0.135895
      dxz     :     0.023542
      dyz     :     0.018139
      dx2y2   :     0.050216
      dxy     :     0.036767

  4 N s       :     3.294119  s :     3.294119
      pz      :     1.614069  p :     3.698802
      px      :     1.044650
      py      :     1.040083
      dz2     :     0.002092  d :     0.020966
      dxz     :     0.001895
      dyz     :     0.003147
      dx2y2   :     0.006439
      dxy     :     0.007391

  5 C s       :     3.015824  s :     3.015824
      pz      :     0.859445  p :     2.792754
      px      :     0.993211
      py      :     0.940098
      dz2     :     0.006644  d :     0.117435
      dxz     :     0.011156
      dyz     :     0.025808
      dx2y2   :     0.026234
      dxy     :     0.047592

  6 O s       :     3.689417  s :     3.689417
      pz      :     1.501568  p :     4.582428
      px      :     1.478812
      py      :     1.602047
      dz2     :     0.002019  d :     0.017090
      dxz     :     0.003522
      dyz     :     0.001713
      dx2y2   :     0.003831
      dxy     :     0.006004

  7 O s       :     3.692370  s :     3.692370
      pz      :     1.491927  p :     4.603857
      px      :     1.769789
      py      :     1.342141
      dz2     :     0.001985  d :     0.016777
      dxz     :     0.000099
      dyz     :     0.005072
      dx2y2   :     0.006017
      dxy     :     0.003605

  8 H s       :     1.053515  s :     1.053515
      pz      :     0.004218  p :     0.021097
      px      :     0.009661
      py      :     0.007217

  9 H s       :     0.881187  s :     0.881187
      pz      :     0.010882  p :     0.042205
      px      :     0.018894
      py      :     0.012428

 10 H s       :     1.070960  s :     1.070960
      pz      :     0.006234  p :     0.023304
      px      :     0.010872
      py      :     0.006198



                     *******************************
                     * LOEWDIN POPULATION ANALYSIS *
                     *******************************

----------------------
LOEWDIN ATOMIC CHARGES
----------------------
   0 C :   -0.209061
   1 C :    0.000270
   2 N :   -0.286486
   3 C :   -0.007338
   4 N :    0.016501
   5 C :    0.029771
   6 O :   -0.294495
   7 O :   -0.300505
   8 H :   -0.008241
   9 H :    0.064142
  10 H :   -0.004558

-------------------------------
LOEWDIN REDUCED ORBITAL CHARGES
-------------------------------
  0 C s       :     2.874097  s :     2.874097
      pz      :     1.177985  p :     3.248380
      px      :     1.008147
      py      :     1.062248
      dz2     :     0.007458  d :     0.086584
      dxz     :     0.003175
      dyz     :     0.010720
      dx2y2   :     0.027640
      dxy     :     0.037591

  1 C s       :     2.868736  s :     2.868736
      pz      :     0.923248  p :     2.997416
      px      :     0.994142
      py      :     1.080026
      dz2     :     0.007808  d :     0.133579
      dxz     :     0.012434
      dyz     :     0.022091
      dx2y2   :     0.042571
      dxy     :     0.048674

  2 N s       :     3.297994  s :     3.297994
      pz      :     1.330655  p :     3.941425
      px      :     1.081695
      py      :     1.529074
      dz2     :     0.006793  d :     0.047067
      dxz     :     0.005638
      dyz     :     0.003498
      dx2y2   :     0.008395
      dxy     :     0.022743

  3 C s       :     2.817808  s :     2.817808
      pz      :     0.878838  p :     2.876922
      px      :     1.013314
      py      :     0.984770
      dz2     :     0.016332  d :     0.312608
      dxz     :     0.044901
      dyz     :     0.038670
      dx2y2   :     0.118651
      dxy     :     0.094053

  4 N s       :     3.048300  s :     3.048300
      pz      :     1.534976  p :     3.874986
      px      :     1.161339
      py      :     1.178672
      dz2     :     0.005769  d :     0.060213
      dxz     :     0.003750
      dyz     :     0.006501
      dx2y2   :     0.020218
      dxy     :     0.023975

  5 C s       :     2.830835  s :     2.830835
      pz      :     0.857648  p :     2.868255
      px      :     0.992457
      py      :     1.018150
      dz2     :     0.015432  d :     0.271139
      dxz     :     0.023832
      dyz     :     0.050901
      dx2y2   :     0.063566
      dxy     :     0.117407

  6 O s       :     3.538585  s :     3.538585
      pz      :     1.499782  p :     4.726059
      px      :     1.566351
      py      :     1.659927
      dz2     :     0.004268  d :     0.029850
      dxz     :     0.004798
      dyz     :     0.002144
      dx2y2   :     0.006631
      dxy     :     0.012010

  7 O s       :     3.538802  s :     3.538802
      pz      :     1.491679  p :     4.732452
      px      :     1.781727
      py      :     1.459047
      dz2     :     0.004102  d :     0.029251
      dxz     :     0.000126
      dyz     :     0.006619
      dx2y2   :     0.012362
      dxy     :     0.006042

  8 H s       :     0.944120  s :     0.944120
      pz      :     0.012827  p :     0.064121
      px      :     0.030489
      py      :     0.020805

  9 H s       :     0.813089  s :     0.813089
      pz      :     0.036207  p :     0.122769
      px      :     0.052905
      py      :     0.033657

 10 H s       :     0.933050  s :     0.933050
      pz      :     0.021430  p :     0.071508
      px      :     0.032186
      py      :     0.017892



                      *****************************
                      * MAYER POPULATION ANALYSIS *
                      *****************************

  NA   - Mulliken gross atomic population
  ZA   - Total nuclear charge
  QA   - Mulliken gross atomic charge
  VA   - Mayer's total valence
  BVA  - Mayer's bonded valence
  FA   - Mayer's free valence

  ATOM       NA         ZA         QA         VA         BVA        FA
  0 C      6.1592     6.0000    -0.1592     3.7020     3.7020    -0.0000
  1 C      5.8974     6.0000     0.1026     3.9459     3.9459     0.0000
  2 N      7.3148     7.0000    -0.3148     2.8866     2.8866     0.0000
  3 C      5.9946     6.0000     0.0054     4.5357     4.5357     0.0000
  4 N      7.0139     7.0000    -0.0139     3.0891     3.0891    -0.0000
  5 C      5.9260     6.0000     0.0740     4.3884     4.3884     0.0000
  6 O      8.2889     8.0000    -0.2889     2.2094     2.2094     0.0000
  7 O      8.3130     8.0000    -0.3130     2.2139     2.2139     0.0000
  8 H      1.0746     1.0000    -0.0746     0.9711     0.9711     0.0000
  9 H      0.9234     1.0000     0.0766     1.0545     1.0545     0.0000
 10 H      1.0943     1.0000    -0.0943     0.9945     0.9945     0.0000

  Mayer bond orders larger than 0.100000
B(  0-C ,  1-C ) :   1.4741 B(  0-C ,  5-C ) :   1.1176 B(  0-C , 10-H ) :   0.9548 
B(  1-C ,  2-N ) :   1.4262 B(  1-C ,  8-H ) :   0.9560 B(  2-N ,  3-C ) :   1.2789 
B(  3-C ,  4-N ) :   1.0627 B(  3-C ,  6-O ) :   2.0718 B(  4-N ,  5-C ) :   1.1114 
B(  4-N ,  9-H ) :   0.8951 B(  5-C ,  7-O ) :   2.0452 

-------
TIMINGS
-------

Total SCF time: 0 days 0 hours 0 min 1 sec 

Total time                  ....       1.656 sec
Sum of individual times     ....       1.552 sec  ( 93.7%)

SCF preparation             ....       0.357 sec  ( 21.6%)
Fock matrix formation       ....       1.108 sec  ( 66.9%)
  Startup                   ....       0.002 sec  (  0.1% of F)
  Split-RI-J                ....       0.106 sec  (  9.6% of F)
  Chain of spheres X        ....       0.843 sec  ( 76.1% of F)
  XC integration            ....       0.194 sec  ( 17.5% of F)
    Basis function eval.    ....       0.046 sec  ( 23.9% of XC)
    Density eval.           ....       0.024 sec  ( 12.4% of XC)
    XC-Functional eval.     ....       0.009 sec  (  4.5% of XC)
    XC-Potential eval.      ....       0.023 sec  ( 11.9% of XC)
Diagonalization             ....       0.000 sec  (  0.0%)
Density matrix formation    ....       0.012 sec  (  0.7%)
Total Energy calculation    ....       0.007 sec  (  0.4%)
Population analysis         ....       0.005 sec  (  0.3%)
Orbital Transformation      ....       0.006 sec  (  0.4%)
Orbital Orthonormalization  ....       0.000 sec  (  0.0%)
DIIS solution               ....       0.030 sec  (  1.8%)
SOSCF solution              ....       0.029 sec  (  1.7%)
Finished LeanSCF after   1.7 sec

Maximum memory used throughout the entire LEANSCF-calculation: 10.1 MB


           ************************************************************
           *        Program running with 16 parallel MPI-processes    *
           *              working on a common directory               *
           ************************************************************

------------------------------------------------------------------------------
                         ORCA PROPERTY INTEGRAL CALCULATIONS
------------------------------------------------------------------------------

GBWName                                   ... Uracil_m1.gbw
Number of atoms                           ...     11
Number of basis functions                 ...    127
Max core memory                           ...   4096 MB

Dipole integrals                          ... YES
Quadrupole integrals                      ...  NO
Linear momentum integrals                 ...  NO
Angular momentum integrals                ...  NO
Higher moments length integrals           ...  NO
Higher moments velocity integrals         ...  NO
Kinetic energy integrals                  ...  NO
GIAO right hand sides                     ...  NO
GIAO dipole derivative integrals          ...  NO
SOC integrals                             ...  NO
EPR diamagnetic integrals (GIAO)          ...  NO
EPR gauge integrals                       ...  NO
Field gradient integrals                  ...  NO (   0 nuclei)
Spin-dipole/Fermi contact integrals       ...  NO (   0 nuclei)
Contact density integrals                 ...  NO (   0 nuclei)
Nucleus-orbit integrals                   ...  NO (   0 nuclei)
Geometric perturbations                   ...  NO (  11 nuclei)

Choice of electric origin   ... Center of mass
Position of electric origin ... ( -0.4297,  0.2961, -0.0506) 
Choice of magnetic origin   ... GIAO
Position of magnetic origin ... (  0.0000,  0.0000,  0.0000) 

Calculating integrals                     ... Electric Dipole (Length)     done (  0.0 sec)

Property integrals calculated in   0.0 sec

Maximum memory used throughout the entire PROPINT-calculation: 8.0 MB

-------------------------   --------------------
FINAL SINGLE POINT ENERGY      -413.715281626531
-------------------------   --------------------



           ************************************************************
           *        Program running with 16 parallel MPI-processes    *
           *              working on a common directory               *
           ************************************************************
------------------------------------------------------------------------------
                         ORCA SCF GRADIENT CALCULATION
------------------------------------------------------------------------------

Nuc. rep. gradient        (SHARK) ... done (  0.0 sec)
HCore & Overlap gradient  (SHARK) ... done (  0.0 sec)
Split-RIJ-J gradient      (SHARK) ... done (  0.1 sec)
done (  0.5 sec)
XC gradient                       ... done (  0.1 sec)

------------------
CARTESIAN GRADIENT
------------------

   1   C   :    0.001881054   -0.046880091    0.004390413
   2   C   :    0.077820807    0.037728300   -0.001523481
   3   N   :   -0.057613125   -0.021389962    0.001248368
   4   C   :   -0.053362936    0.090515934   -0.010034231
   5   N   :    0.015374518   -0.017968784    0.002126185
   6   C   :   -0.058304445    0.004306929   -0.002247671
   7   O   :    0.061976820   -0.016056155    0.003353010
   8   O   :    0.012283859   -0.032026122    0.003134473
   9   H   :   -0.000457113    0.010438960   -0.001061751
  10   H   :    0.003200621   -0.002462820    0.000263457
  11   H   :   -0.002800060   -0.006206188    0.000351228

Difference to translation invariance:
           :   -0.0000000001   -0.0000000000   -0.0000000000

Difference to rotation invariance:
           :    0.0001113879   -0.0000540711   -0.0000917476

Norm of the Cartesian gradient     ...    0.1846041045
RMS gradient                       ...    0.0321354498
MAX gradient                       ...    0.0905159338

-------
TIMINGS
-------

Total SCF gradient time     ....        0.658 sec

Densities                   ....       0.000 sec  (  0.0%)
One electron gradient       ....       0.006 sec  (  0.9%)
RI-J Coulomb gradient       ....       0.063 sec  (  9.6%)
COSX gradient               ....       0.510 sec  ( 77.6%)
XC gradient                 ....       0.077 sec  ( 11.7%)

Maximum memory used throughout the entire SCFGRAD-calculation: 13.1 MB
------------------------------------------------------------------------------
                         ORCA GEOMETRY RELAXATION STEP
------------------------------------------------------------------------------

Reading the OPT-File                    .... done
Getting information on internals        .... done
Copying old internal coords+grads       .... done
Making the new internal coordinates     .... (2022 redundants) done
Validating the new internal coordinates .... (2022 redundants) done
Calculating the B-matrix                .... done
Calculating the G,G- and P matrices     .... done
Transforming gradient to internals      .... done
Projecting the internal gradient        .... done
Number of atoms                         ....  11
Number of internal coordinates          ....  47
Current Energy                          ....  -413.715281627 Eh
Current gradient norm                   ....     0.184604104 Eh/bohr
Maximum allowed component of the step   ....  0.300
Current trust radius                    ....  0.300
Evaluating the initial hessian          ....  (Almloef) done
Projecting the Hessian                  .... done
Forming the augmented Hessian           .... done
Diagonalizing the augmented Hessian     .... done
Last element of RFO vector              ....  0.968573083
Lowest eigenvalues of augmented Hessian:
 -0.036456415  0.020270054  0.022523485  0.027918671  0.028919521
Length of the computed step             ....  0.256799555
The final length of the internal step   ....  0.256799555
Converting the step to Cartesian space:
 Initial RMS(Int)=    0.0374580649
Transforming coordinates:
 Iter   0:  RMS(Cart)=    0.0519818221 RMS(Int)=    0.0375375344
 Iter   5:  RMS(Cart)=    0.0000001768 RMS(Int)=    0.0000001255
done
Storing new coordinates                 .... done

                                .--------------------.
          ----------------------|Geometry convergence|-------------------------
          Item                value                   Tolerance       Converged
          ---------------------------------------------------------------------
          RMS gradient        0.0214277921            0.0001000000      NO
          MAX gradient        0.0602359133            0.0003000000      NO
          RMS step            0.0374580649            0.0020000000      NO
          MAX step            0.1212182023            0.0040000000      NO
          -------------------------------------------------------------------------
          ........................................................
          Max(Bonds)      0.0421      Max(Angles)    6.95
          Max(Dihed)        0.23      Max(Improp)    0.00
          ---------------------------------------------------------------------

The optimization has not yet converged - more geometry cycles are needed


    ---------------------------------------------------------------------------
                         Redundant Internal Coordinates
                            (Angstroem and degrees)

        Definition                    Value    dE/dq     Step     New-Value
    ----------------------------------------------------------------------------
     1. B(C   1,C   0)                1.3353 -0.053350  0.0351    1.3704   
     2. B(N   2,C   1)                1.4074  0.043758 -0.0421    1.3653   
     3. B(C   3,N   2)                1.4048  0.008118 -0.0081    1.3967   
     4. B(N   4,C   3)                1.3472 -0.049896  0.0384    1.3856   
     5. B(C   5,N   4)                1.3577 -0.031268  0.0255    1.3832   
     6. B(C   5,C   0)                1.4734  0.022480 -0.0233    1.4500   
     7. B(O   6,C   3)                1.2122 -0.043451  0.0207    1.2329   
     8. B(O   7,C   5)                1.2205 -0.031096  0.0152    1.2357   
     9. B(H   8,C   1)                1.0908 -0.006229  0.0083    1.0991   
    10. B(H   9,N   4)                1.0122 -0.004039  0.0046    1.0168   
    11. B(H  10,C   0)                1.0861 -0.005417  0.0071    1.0933   
    12. A(C   1,C   0,C   5)          121.43  0.009803   -1.24    120.19   
    13. A(C   1,C   0,H  10)          122.36 -0.009145    1.22    123.58   
    14. A(C   5,C   0,H  10)          116.21 -0.000658    0.01    116.23   
    15. A(N   2,C   1,H   8)          120.58  0.025155   -3.40    117.17   
    16. A(C   0,C   1,N   2)          119.57 -0.032877    4.12    123.69   
    17. A(C   0,C   1,H   8)          119.85  0.007722   -0.71    119.14   
    18. A(C   1,N   2,C   3)          119.31  0.007474   -1.26    118.05   
    19. A(N   2,C   3,N   4)          120.19  0.012478   -1.62    118.57   
    20. A(N   4,C   3,O   6)          127.56  0.047757   -5.32    122.24   
    21. A(N   2,C   3,O   6)          112.25 -0.060236    6.95    119.19   
    22. A(C   5,N   4,H   9)          117.65  0.009369   -1.29    116.37   
    23. A(C   3,N   4,H   9)          119.14  0.008870   -1.21    117.93   
    24. A(C   3,N   4,C   5)          123.20 -0.018242    2.49    125.69   
    25. A(C   0,C   5,N   4)          116.29  0.021360   -2.49    113.80   
    26. A(N   4,C   5,O   7)          122.82  0.006393   -0.75    122.07   
    27. A(C   0,C   5,O   7)          120.89 -0.027753    3.24    124.13   
    28. D(N   2,C   1,C   0,C   5)     -0.13 -0.000144    0.07     -0.06   
    29. D(H   8,C   1,C   0,H  10)     -0.05 -0.000071    0.02     -0.03   
    30. D(N   2,C   1,C   0,H  10)    179.87 -0.000115    0.05    179.92   
    31. D(H   8,C   1,C   0,C   5)    179.95 -0.000100    0.04    179.99   
    32. D(C   3,N   2,C   1,H   8)   -179.40  0.000096   -0.19   -179.58   
    33. D(C   3,N   2,C   1,C   0)      0.69  0.000156   -0.22      0.47   
    34. D(N   4,C   3,N   2,C   1)     -0.43 -0.000227    0.23     -0.21   
    35. D(O   6,C   3,N   2,C   1)    179.71 -0.000134    0.07    179.78   
    36. D(H   9,N   4,C   3,O   6)      0.30 -0.000081    0.04      0.34   
    37. D(H   9,N   4,C   3,N   2)   -179.52  0.000213   -0.17   -179.69   
    38. D(C   5,N   4,C   3,O   6)    179.40 -0.000227    0.16    179.56   
    39. D(C   5,N   4,C   3,N   2)     -0.43  0.000067   -0.05     -0.48   
    40. D(O   7,C   5,C   0,C   1)    179.29 -0.000205    0.20    179.49   
    41. D(N   4,C   5,C   0,H  10)    179.33 -0.000167    0.13    179.46   
    42. D(N   4,C   5,C   0,C   1)     -0.67 -0.000140    0.11     -0.56   
    43. D(O   7,C   5,N   4,H   9)      0.10  0.000069   -0.09      0.01   
    44. D(O   7,C   5,N   4,C   3)   -179.01  0.000213   -0.21   -179.21   
    45. D(C   0,C   5,N   4,H   9)   -179.94 -0.000010    0.00   -179.93   
    46. D(C   0,C   5,N   4,C   3)      0.96  0.000134   -0.12      0.84   
    47. D(O   7,C   5,C   0,H  10)     -0.71 -0.000232    0.22     -0.49   
    ----------------------------------------------------------------------------

Geometry step timings:
Preparation and reading OPT file:      0.000 s ( 2.216 %)
Internal coordinates            :      0.000 s ( 3.988 %)
B/P matrices and projection     :      0.000 s (23.781 %)
Hessian update/contruction      :      0.000 s (14.180 %)
Making the step                 :      0.000 s (25.702 %)
Converting the step to Cartesian:      0.000 s ( 4.874 %)
Storing new data                :      0.000 s ( 2.511 %)
Checking convergence            :      0.000 s ( 2.511 %)
Final printing                  :      0.000 s (20.236 %)
Total time                      :      0.001 s

Time for energy+gradient        :      4.819 s
Time for complete geometry iter :      5.285 s

         *************************************************************
         *                GEOMETRY OPTIMIZATION CYCLE   2            *
         *************************************************************
---------------------------------
CARTESIAN COORDINATES (ANGSTROEM)
---------------------------------
  C      1.345460    0.547396   -0.019282
  C      1.209303   -0.811878    0.091588
  N      0.004223   -1.453188    0.117399
  C     -1.153569   -0.678955    0.015574
  N     -1.022524    0.695267   -0.101582
  C      0.171612    1.393075   -0.118842
  O     -2.253304   -1.236031    0.032117
  O      0.210384    2.624622   -0.212262
  H      2.111234   -1.435597    0.165706
  H     -1.871374    1.250712   -0.170312
  H      2.311745    1.058456   -0.038453

----------------------------
CARTESIAN COORDINATES (A.U.)
----------------------------
  NO LB      ZA    FRAG     MASS         X           Y           Z
   0 C     6.0000    0    12.011    2.542551    1.034428   -0.036439
   1 C     6.0000    0    12.011    2.285252   -1.534226    0.173076
   2 N     7.0000    0    14.007    0.007981   -2.746127    0.221852
   3 C     6.0000    0    12.011   -2.179930   -1.283038    0.029431
   4 N     7.0000    0    14.007   -1.932291    1.313864   -0.191963
   5 C     6.0000    0    12.011    0.324299    2.632530   -0.224578
   6 O     8.0000    0    15.999   -4.258128   -2.335760    0.060693
   7 O     8.0000    0    15.999    0.397568    4.959816   -0.401117
   8 H     1.0000    0     1.008    3.989653   -2.712885    0.313139
   9 H     1.0000    0     1.008   -3.536384    2.363504   -0.321844
  10 H     1.0000    0     1.008    4.368565    2.000193   -0.072666

--------------------------------
INTERNAL COORDINATES (ANGSTROEM)
--------------------------------
 C      0   0   0     0.000000000000     0.00000000     0.00000000
 C      1   0   0     1.370567383220     0.00000000     0.00000000
 N      2   1   0     1.365343525168   123.71397680     0.00000000
 C      3   2   1     1.396527455448   118.03132788     0.46217881
 N      4   3   2     1.385418091209   118.53305311   359.79142017
 C      5   4   3     1.383182856883   125.67120736   359.52084306
 O      4   3   2     1.232893019128   119.21111233   179.76431989
 O      6   5   4     1.235693289254   122.06179344   180.79072818
 H      2   1   3     1.099089363241   119.12675809   180.05020890
 H      5   4   3     1.016753888602   117.94512682   180.30808618
 H      1   2   3     1.093277973385   123.56121020   179.92107005

---------------------------
INTERNAL COORDINATES (A.U.)
---------------------------
 C      0   0   0     0.000000000000     0.00000000     0.00000000
 C      1   0   0     2.589997002370     0.00000000     0.00000000
 N      2   1   0     2.580125341290   123.71397680     0.00000000
 C      3   2   1     2.639054429298   118.03132788     0.46217881
 N      4   3   2     2.618060773365   118.53305311   359.79142017
 C      5   4   3     2.613836792644   125.67120736   359.52084306
 O      4   3   2     2.329830158574   119.21111233   179.76431989
 O      6   5   4     2.335121902215   122.06179344   180.79072818
 H      2   1   3     2.076977893231   119.12675809   180.05020890
 H      5   4   3     1.921386395058   117.94512682   180.30808618
 H      1   2   3     2.065995957947   123.56121020   179.92107005



           ************************************************************
           *        Program running with 16 parallel MPI-processes    *
           *              working on a common directory               *
           ************************************************************
------------------------------------------------------------------------------
                   ___                                                        
                  /   \      - P O W E R E D   B Y -                         
                 /     \                                                     
                 |  |  |   _    _      __       _____    __    __             
                 |  |  |  | |  | |    /  \     |  _  \  |  |  /  |          
                  \  \/   | |  | |   /    \    | | | |  |  | /  /          
                 / \  \   | |__| |  /  /\  \   | |_| |  |  |/  /          
                |  |  |   |  __  | /  /__\  \  |    /   |      \           
                |  |  |   | |  | | |   __   |  |    \   |  |\   \          
                \     /   | |  | | |  |  |  |  | |\  \  |  | \   \       
                 \___/    |_|  |_| |__|  |__|  |_| \__\ |__|  \__/        
                                                                              
                      - O R C A' S   B I G   F R I E N D -                    
                                      &                                       
                       - I N T E G R A L  F E E D E R -                       
                                                                              
 v1 FN, 2020, v2 2021, v3 2022-2024                                           
------------------------------------------------------------------------------


----------------------
SHARK INTEGRAL PACKAGE
----------------------

Number of atoms                             ...     11
Number of basis functions                   ...    127
Number of shells                            ...     57
Maximum angular momentum                    ...      2
Integral batch strategy                     ... SHARK/LIBINT Hybrid
RI-J (if used) integral strategy            ... SPLIT-RIJ (Revised 2003 algorithm where possible)
Printlevel                                  ...      1
Contraction scheme used                     ... SEGMENTED contraction
Prescreening option                         ... SCHWARTZ
   Thresh                                   ... 2.500e-11
   Tcut                                     ... 2.500e-12
   Tpresel                                  ... 2.500e-12 
Coulomb Range Separation                    ... NOT USED
Exchange Range Separation                   ... NOT USED
Multipole approximations                    ... NOT USED
Finite Nucleus Model                        ... NOT USED
CABS basis                                  ... NOT available
Auxiliary Coulomb fitting basis             ... AVAILABLE
   # of basis functions in Aux-J            ...    425
   # of shells in Aux-J                     ...    135
   Maximum angular momentum in Aux-J        ...      4
Auxiliary J/K fitting basis                 ... NOT available
Auxiliary Correlation fitting basis         ... NOT available
Auxiliary 'external' fitting basis          ... NOT available

Checking pre-screening integrals            ... done (  0.0 sec) Dimension = 57
   => SHARK Basis and OBASIS are compatible. Storing Pre-screening
Shell pair information
Shell pair cut-off parameter TPreSel        ...   2.5e-12
Total number of shell pairs                 ...      1653
Shell pairs after pre-screening             ...      1569
Total number of primitive shell pairs       ...      6329
Primitive shell pairs kept                  ...      4480
          la=0 lb=0:    431 shell pairs
          la=1 lb=0:    548 shell pairs
          la=1 lb=1:    185 shell pairs
          la=2 lb=0:    223 shell pairs
          la=2 lb=1:    147 shell pairs
          la=2 lb=2:     35 shell pairs

Checking whether 4 symmetric matrices of dimension 127 fit in memory
:Max Core in MB      =   4096.00
 MB in use           =      5.51
 MB left             =   4090.49
 MB needed           =      0.25
 Data fit in memory  = YES
Calculating RI/J V-Matrix + Cholesky decomp.... done (  0.0 sec)
Calculating Nuclear repulsion               ... done (  0.0 sec) ENN=    343.061885024426 Eh

Diagonalization of the overlap matrix:
Smallest eigenvalue                        ... 1.327e-03
Time for diagonalization                   ...    0.001 sec
Threshold for overlap eigenvalues          ... 1.000e-07
Number of eigenvalues below threshold      ... 0
Time for construction of square roots      ...    0.000 sec
Total time needed                          ...    0.002 sec

-------------------
DFT GRID GENERATION
-------------------

General Integration Accuracy     IntAcc      ... 4.388
Radial Grid Type                 RadialGrid  ... OptM3 with GC (2021)
Angular Grid (max. ang.)         AngularGrid ... 4 (Lebedev-302)
Angular grid pruning method      GridPruning ... 4 (adaptive)
Weight generation scheme         WeightScheme... mBecke (2022)
Basis function cutoff            BFCut       ... 1.0000e-11
Integration weight cutoff        WCut        ... 1.0000e-14
Partially contracted basis set               ... off
Rotationally invariant grid construction     ... off
Angular grids for H and He will be reduced by one unit

Total number of grid points                  ...    58113
Total number of batches                      ...      913
Average number of points per batch           ...       63
Average number of grid points per atom       ...     5283

--------------------
COSX GRID GENERATION
--------------------

GRIDX 1
-------
General Integration Accuracy     IntAcc      ... 3.816
Radial Grid Type                 RadialGrid  ... OptM3 with GC (2021)
Angular Grid (max. ang.)         AngularGrid ... 1 (Lebedev-50)
Angular grid pruning method      GridPruning ... 4 (adaptive)
Weight generation scheme         WeightScheme... mBecke (2022)
Basis function cutoff            BFCut       ... 1.0000e-11
Integration weight cutoff        WCut        ... 1.0000e-14
Partially contracted basis set               ... on
Rotationally invariant grid construction     ... off
Angular grids for H and He will be reduced by one unit

Total number of grid points                  ...     7386
Total number of batches                      ...       64
Average number of points per batch           ...      115
Average number of grid points per atom       ...      671
UseSFitting                                  ... on

GRIDX 2
-------
General Integration Accuracy     IntAcc      ... 4.020
Radial Grid Type                 RadialGrid  ... OptM3 with GC (2021)
Angular Grid (max. ang.)         AngularGrid ... 2 (Lebedev-110)
Angular grid pruning method      GridPruning ... 4 (adaptive)
Weight generation scheme         WeightScheme... mBecke (2022)
Basis function cutoff            BFCut       ... 1.0000e-11
Integration weight cutoff        WCut        ... 1.0000e-14
Partially contracted basis set               ... on
Rotationally invariant grid construction     ... off
Angular grids for H and He will be reduced by one unit

Total number of grid points                  ...    16876
Total number of batches                      ...      139
Average number of points per batch           ...      121
Average number of grid points per atom       ...     1534
UseSFitting                                  ... on

GRIDX 3
-------
General Integration Accuracy     IntAcc      ... 4.338
Radial Grid Type                 RadialGrid  ... OptM3 with GC (2021)
Angular Grid (max. ang.)         AngularGrid ... 3 (Lebedev-194)
Angular grid pruning method      GridPruning ... 4 (adaptive)
Weight generation scheme         WeightScheme... mBecke (2022)
Basis function cutoff            BFCut       ... 1.0000e-11
Integration weight cutoff        WCut        ... 1.0000e-14
Partially contracted basis set               ... on
Rotationally invariant grid construction     ... off
Angular grids for H and He will be reduced by one unit

[...]
     22       0.116773   0.000574  -0.027421   0.018655  -0.006927  -0.029142
     23      -0.008777   0.004311   0.001915  -0.001295   0.000445   0.002564
     24      -0.122108   0.024916   0.208527  -0.160061   0.374798   0.505181
     25      -0.332246  -0.080578   0.144051  -0.342993   0.434161   0.574029
     26       0.026211  -0.953084  -0.015168   0.024562  -0.025797  -0.034185
     27      -0.150867  -0.003182   0.494537  -0.017723  -0.255530  -0.230399
     28      -0.720810  -0.000804   0.525543  -0.107824  -0.437160  -0.500847
     29       0.056797   0.026043  -0.029560   0.008546   0.029500   0.035380
     30      -0.109380  -0.004356  -0.419279  -0.276239  -0.132197   0.111820
     31      -0.158402   0.017004   0.307512   0.851245   0.023048  -0.123998
     32       0.009680   0.219330  -0.035104  -0.078422  -0.005868   0.013508
                 24         25         26         27         28         29    
      0       0.017451   0.052656   0.214642  -0.095619   0.051701   0.052636
      1       0.120358  -0.099520  -0.364756  -0.246790  -0.121140  -0.143282
      2      -0.009485   0.009677   0.036154   0.017779   0.011418   0.013305
      3       0.074440  -0.024866  -0.247027   0.294182  -0.015906   0.009010
      4      -0.035140  -0.013559   0.153895   0.421266   0.024779   0.023232
      5       0.004972   0.000479  -0.019595  -0.026891  -0.002484  -0.001665
      6      -0.027652  -0.081556   0.301476  -0.173291  -0.034170   0.118629
      7      -0.056426   0.035183  -0.043659  -0.133855  -0.004072   0.001214
      8       0.003932  -0.005148   0.011914   0.006391  -0.000544   0.003107
      9      -0.061545   0.003294  -0.055862  -0.030225   0.349395  -0.655141
     10       0.118163  -0.072320   0.239555   0.056116   0.132262  -0.161226
     11      -0.011547   0.006071  -0.021415  -0.005498  -0.001622  -0.004250
     12       0.005445  -0.090381   0.112208  -0.056760  -0.066292   0.082592
     13      -0.155039  -0.088685  -0.025427  -0.072198  -0.125706  -0.022490
     14       0.013024   0.004876   0.005162   0.004431   0.008610   0.004090
     15      -0.185587   0.048801  -0.276539   0.130255  -0.062665  -0.111182
     16      -0.029960  -0.024474  -0.120184  -0.025325   0.498620   0.473516
     17      -0.002662   0.003352   0.002223   0.005674  -0.042664  -0.041981
     18       0.042266   0.063105  -0.079938   0.043372  -0.185624   0.341203
     19       0.004660   0.043060  -0.058111   0.003186  -0.074075   0.136723
     20       0.000752  -0.001871   0.002638   0.000911   0.001150  -0.002176
     21       0.045340  -0.004915   0.018468  -0.023745   0.017239   0.016841
     22       0.051166   0.074546   0.152164   0.059122  -0.262738  -0.262638
     23      -0.002948  -0.006257  -0.011989  -0.005507   0.022015   0.021992
     24       0.004357   0.437148  -0.296404  -0.470583  -0.033670  -0.002568
     25      -0.148019   0.631113   0.100797  -0.549391   0.023145  -0.043321
     26       0.012404  -0.040670  -0.016387   0.032762  -0.002872   0.003591
     27       0.470637   0.218435   0.082777   0.018108   0.336041  -0.014657
     28       0.590757   0.414643  -0.076588   0.049365   0.533147  -0.131846
     29      -0.036014  -0.028474   0.008861  -0.003596  -0.035010   0.010659
     30       0.292913  -0.141860  -0.212515  -0.220228  -0.076855  -0.065094
     31      -0.456746   0.331822   0.533142  -0.071538   0.223805   0.178676
     32       0.045921  -0.031366  -0.049999  -0.000111  -0.020627  -0.016593
                 30         31         32    
      0       0.004028  -0.079201  -0.000526
      1      -0.000556  -0.037128   0.000646
      2       0.000159   0.000863  -0.000069
      3      -0.066342  -0.004222  -0.000331
      4       0.053193   0.007929   0.000172
      5      -0.006249  -0.000774  -0.000025
      6      -0.001829   0.000594  -0.000702
      7      -0.001497  -0.000044   0.000139
      8       0.000076   0.000020  -0.000031
      9       0.002683   0.000376   0.001344
     10      -0.000093   0.000396   0.001142
     11       0.000080  -0.000023  -0.000059
     12      -0.000147   0.000344   0.061980
     13       0.000098   0.000374  -0.037830
     14      -0.000012  -0.000022   0.004788
     15       0.000931   0.002428  -0.000432
     16      -0.000423  -0.003910  -0.001673
     17       0.000062   0.000390   0.000124
     18      -0.000723  -0.000089  -0.000204
     19      -0.000211  -0.000068  -0.000060
     20      -0.000002   0.000003   0.000000
     21      -0.000194  -0.000221  -0.000055
     22       0.000482   0.000958   0.000228
     23      -0.000045  -0.000084  -0.000019
     24       0.804120   0.049721   0.001511
     25      -0.579853  -0.041911  -0.001001
     26       0.070341   0.004852   0.000121
     27       0.002404  -0.001007  -0.848798
     28      -0.000118  -0.000616   0.519543
     29       0.000074   0.000022  -0.065646
     30      -0.065067   0.903790  -0.000780
     31      -0.025949   0.413609  -0.000877
     32       0.000325  -0.008991   0.000049


-----------
IR SPECTRUM
-----------

 Mode   freq       eps      Int      T**2         TX        TY        TZ
       cm**-1   L/(mol*cm) km/mol    a.u.
----------------------------------------------------------------------------
  6:    156.78   0.000889    4.49  0.001770  (-0.001140  0.003522  0.041911)
  7:    191.87   0.000379    1.91  0.000616  (-0.000685  0.002043  0.024723)
  8:    392.19   0.002102   10.62  0.001673  ( 0.036712 -0.017858  0.002443)
  9:    443.66   0.001848    9.34  0.001300  ( 0.000964 -0.002982 -0.035919)
 10:    523.61   0.001240    6.27  0.000739  ( 0.017148  0.021063 -0.001240)
 11:    561.24   0.000661    3.34  0.000367  (-0.018630  0.004416 -0.000877)
 12:    611.88   0.000743    3.76  0.000379  ( 0.019180  0.003327  0.000216)
 13:    700.97   0.006801   34.37  0.003028  ( 0.001361 -0.004502 -0.054825)
 14:    725.48   0.002856   14.43  0.001229  (-0.000970  0.002875  0.034919)
 15:    796.99   0.003110   15.72  0.001218  ( 0.000989 -0.002742 -0.034774)
 16:    802.26   0.000421    2.13  0.000164  (-0.005913  0.011339 -0.000390)
 17:    813.82   0.011593   58.59  0.004445  ( 0.001737 -0.005399 -0.066432)
 18:    967.07   0.003657   18.48  0.001180  ( 0.024340 -0.024093  0.002679)
 19:    991.34   0.000030    0.15  0.000009  ( 0.000059 -0.000178 -0.003063)
 20:    998.82   0.002209   11.16  0.000690  ( 0.004177 -0.025839  0.002226)
 21:   1081.82   0.000214    1.08  0.000062  (-0.007563 -0.002116 -0.000047)
 22:   1144.70   0.002633   13.31  0.000718  (-0.010189  0.024671 -0.002326)
 23:   1326.51   0.017960   90.76  0.004225  ( 0.016962  0.062569 -0.004740)
 24:   1339.69   0.004649   23.49  0.001083  (-0.029330  0.014780 -0.002046)
 25:   1382.67   0.002391   12.08  0.000540  ( 0.023219  0.000437  0.000592)
 26:   1490.04   0.021569  109.00  0.004517  (-0.065233  0.015881 -0.003137)
 27:   1598.79   0.051231  258.90  0.010000  ( 0.069288  0.071988 -0.004070)
 28:   1749.14   0.190625  963.34  0.034009  ( 0.084461  0.163552 -0.011242)
 29:   1766.50   0.086329  436.27  0.015251  (-0.120022  0.028531 -0.005581)
 30:   3037.05   0.022827  115.36  0.002346  (-0.039784  0.027414 -0.003355)
 31:   3193.85   0.004698   23.74  0.000459  (-0.019849 -0.008062  0.000114)
 32:   3595.04   0.001516    7.66  0.000132  (-0.009760  0.005977 -0.000757)

* The epsilon (eps) is given for a Dirac delta lineshape.
** The dipole moment derivative (T) already includes vibrational overlap.

The first frequency considered to be a vibration is 6
The total number of vibrations considered is 27


--------------------------
THERMOCHEMISTRY AT 298.15K
--------------------------

Temperature         ...   298.15 K
Pressure            ...     1.00 atm
Total Mass          ...   111.08 AMU
Quasi RRHO          ...     True
Cut-Off Frequency   ...     1.00 cm^-1

Throughout the following assumptions are being made:
  (1) The electronic state is orbitally nondegenerate
  (2) There are no thermally accessible electronically excited states
  (3) Hindered rotations indicated by low frequency modes are not
      treated as such but are treated as vibrations and this may
      cause some error
  (4) All equations used are the standard statistical mechanics
      equations for an ideal gas
  (5) All vibrations are strictly harmonic

freq.     156.78  E(vib)   ...       0.40 
freq.     191.87  E(vib)   ...       0.36 
freq.     392.19  E(vib)   ...       0.20 
freq.     443.66  E(vib)   ...       0.17 
freq.     523.61  E(vib)   ...       0.13 
freq.     561.24  E(vib)   ...       0.11 
freq.     611.88  E(vib)   ...       0.10 
freq.     700.97  E(vib)   ...       0.07 
freq.     725.48  E(vib)   ...       0.06 
freq.     796.99  E(vib)   ...       0.05 
freq.     802.26  E(vib)   ...       0.05 
freq.     813.82  E(vib)   ...       0.05 
freq.     967.07  E(vib)   ...       0.03 
freq.     991.34  E(vib)   ...       0.02 
freq.     998.82  E(vib)   ...       0.02 
freq.    1081.82  E(vib)   ...       0.02 
freq.    1144.70  E(vib)   ...       0.01 
freq.    1326.51  E(vib)   ...       0.01 
freq.    1339.69  E(vib)   ...       0.01 
freq.    1382.67  E(vib)   ...       0.01 
freq.    1490.04  E(vib)   ...       0.00 
freq.    1598.79  E(vib)   ...       0.00 
freq.    1749.14  E(vib)   ...       0.00 
freq.    1766.50  E(vib)   ...       0.00 
freq.    3037.05  E(vib)   ...       0.00 
freq.    3193.85  E(vib)   ...       0.00 
freq.    3595.04  E(vib)   ...       0.00 

------------
INNER ENERGY
------------

The inner energy is: U= E(el) + E(ZPE) + E(vib) + E(rot) + E(trans)
    E(el)   - is the total energy from the electronic structure calculation
              = E(kin-el) + E(nuc-el) + E(el-el) + E(nuc-nuc)
    E(ZPE)  - the the zero temperature vibrational energy from the frequency calculation
    E(vib)  - the the finite temperature correction to E(ZPE) due to population
              of excited vibrational states
    E(rot)  - is the rotational thermal energy
    E(trans)- is the translational thermal energy

Summary of contributions to the inner energy U:
Electronic energy                ...   -413.74666723 Eh
Zero point energy                ...      0.07377567 Eh      46.29 kcal/mol
Thermal vibrational correction   ...      0.00298553 Eh       1.87 kcal/mol
Thermal rotational correction    ...      0.00141627 Eh       0.89 kcal/mol
Thermal translational correction ...      0.00141627 Eh       0.89 kcal/mol
-----------------------------------------------------------------------
Total thermal energy                   -413.66707349 Eh


Summary of corrections to the electronic energy:
(perhaps to be used in another calculation)
Total thermal correction                  0.00581807 Eh       3.65 kcal/mol
Non-thermal (ZPE) correction              0.07377567 Eh      46.29 kcal/mol
-----------------------------------------------------------------------
Total correction                          0.07959374 Eh      49.95 kcal/mol


--------
ENTHALPY
--------

The enthalpy is H = U + kB*T
                kB is Boltzmann's constant
Total thermal energy              ...   -413.66707349 Eh 
Thermal Enthalpy correction       ...      0.00094421 Eh       0.59 kcal/mol
-----------------------------------------------------------------------
Total Enthalpy                    ...   -413.66612928 Eh


Note: Only C1 symmetry has been detected, increase convergence thresholds 
      if your molecule has a higher symmetry. Symmetry factor of 1.0 is   
      used for the rotational entropy correction. 
 

Note: Rotational entropy computed according to Herzberg 
Infrared and Raman Spectra, Chapter V,1, Van Nostrand Reinhold, 1945 
Point Group:  C1, Symmetry Number:   1  
Rotational constants in cm-1:     0.132667     0.067725     0.044837 

Vibrational entropy computed according to the QRRHO of S. Grimme
Chem.Eur.J. 2012 18 9955 using a reference frequency of 100.0 cm-1


-------
ENTROPY
-------

The entropy contributions are T*S = T*(S(el)+S(vib)+S(rot)+S(trans))
     S(el)   - electronic entropy
     S(vib)  - vibrational entropy
     S(rot)  - rotational entropy
     S(trans)- translational entropy
The entropies will be listed as multiplied by the temperature to get
units of energy

Electronic entropy                ...      0.00000000 Eh      0.00 kcal/mol
Vibrational entropy               ...      0.00467725 Eh      2.94 kcal/mol
Rotational entropy                ...      0.01320112 Eh      8.28 kcal/mol
Translational entropy             ...      0.01902006 Eh     11.94 kcal/mol
-----------------------------------------------------------------------
Final entropy term                ...      0.03689843 Eh     23.15 kcal/mol

In case the symmetry of your molecule has not been determined correctly
or in case you have a reason to use a different symmetry number we print 
out the resulting rotational entropy values for sn=1,12:

 non-linear molecules -----------------------------------
|  sn= 1 | S(rot)=       0.01320112 Eh      8.28 kcal/mol|
|  sn= 2 | S(rot)=       0.01254666 Eh      7.87 kcal/mol|
|  sn= 3 | S(rot)=       0.01216383 Eh      7.63 kcal/mol|
|  sn= 4 | S(rot)=       0.01189220 Eh      7.46 kcal/mol|
|  sn= 5 | S(rot)=       0.01168151 Eh      7.33 kcal/mol|
|  sn= 6 | S(rot)=       0.01150937 Eh      7.22 kcal/mol|
|  sn= 7 | S(rot)=       0.01136382 Eh      7.13 kcal/mol|
|  sn= 8 | S(rot)=       0.01123775 Eh      7.05 kcal/mol|
|  sn= 9 | S(rot)=       0.01112654 Eh      6.98 kcal/mol|
|  sn=10 | S(rot)=       0.01102706 Eh      6.92 kcal/mol|
|  sn=11 | S(rot)=       0.01093707 Eh      6.86 kcal/mol|
|  sn=12 | S(rot)=       0.01085491 Eh      6.81 kcal/mol|
 linear molecules ---------------------------------------
|  Dinfh | S(rot)=       0.00825724 Eh      5.18 kcal/mol|
|  Cinfv | S(rot)=       0.00891169 Eh      5.59 kcal/mol|
 --------------------------------------------------------


-------------------
GIBBS FREE ENERGY
-------------------

The Gibbs free energy is G = H - T*S

Total enthalpy                    ...   -413.66612928 Eh 
Total entropy correction          ...     -0.03689843 Eh    -23.15 kcal/mol
-----------------------------------------------------------------------
Final Gibbs free energy         ...   -413.70302771 Eh

For completeness - the Gibbs free energy minus the electronic energy
G-E(el)                           ...      0.04363952 Eh     27.38 kcal/mol


Maximum memory used throughout the entire PROP-calculation: 29.0 MB

--------------------------------
SUGGESTED CITATIONS FOR THIS RUN
--------------------------------

Below you find a list of papers that are relevant to this ORCA run
We neither can nor want to force you to cite these papers, but we appreciate if you do
You receive ORCA, which is the product of decades of hard work by many enthusiastic individuals, for free
The only thing we kindly ask in return is that you cite our papers,
We deeply appreciate it, if you show your appreciation for ORCA by not just citing the generic ORCA reference.

Please note that relegating all ORCA citations to the supporting information does *not* help us.
SI sections are not indexed - citations you put there will not count into any citation statistics
But we need these citations in order to attract the funding resources that allow us to do what we are doing

Therefore, if you are a happy ORCA user, please consider citing a few of the papers listed below in the main body of your paper

In addition to the list printed below, the program has created the file Uracil_m1.bibtex that contains the list in bibtex format
You can import this file easily into all common literature databanks and citation aid programs


List of essential papers. We consider these as the minimum necessary citations

  1. Neese, F.
     Software update: the ORCA program system, version 6.0
     WIRES Comput. Molec. Sci. 2025 15(1), e70019
     doi.org/10.1002/wcms.7019

List of papers to cite with high priority. The work reported in these papers was absolutely
necessary for this run to complete.
Our perspective: the developers of density functionals and basis sets usually get cited in chemistry papers
Good! But without the algorithms to do something with them, the functionals or basis sets would not do anything.
Hence, in our opinion, the algorithm design and method developments papers are equally worthy of getting cited

  1. Neese, F.
     An improvement of the resolution of the identity approximation for the formation of the Coulomb matrix
     J. Comp. Chem. 2003 24(14), 1740-1747
     doi.org/10.1002/jcc.10318
  2. Neese, F.; Wennmohs, F.; Hansen, A.; Becker, U.
     Efficient, approximate and parallel Hartree-Fock and hybrid DFT calculations. A 'chain-of-spheres' algorithm for the Hartree-Fock exchange
     Chem. Phys. 2009 356(1-3), 98-109
     doi.org/10.1016/j.chemphys.2008.10.036
  3. Bykov, D.; Petrenko, T.; Izsak, R.; Kossmann, S.; Becker, U.; Valeev, E.; Neese, F.
     Efficient implementation of the analytic second derivatives of Hartree-Fock and hybrid DFT energies: a detailed analysis of different approximations
     Molec. Phys. 2015 113 , 1961-1977
     doi.org/10.1080/00268976.2015.1025114
  4. Helmich-Paris, B.; de Souza, B.; Neese, F.; Izsák, R.
     An improved chain of spheres for exchange algorithm
     J. Chem. Phys. 2021 155(10), 104109
     doi.org/10.1063/5.0058766
  5. Neese, F.
     The SHARK Integral Generation and Digestion System
     J. Comp. Chem. 2022 44(3), 381
     doi.org/10.1002/jcc.26942

List of suggested additional citations. These are papers that are important in the 'surrounding' of 
of this run, or papers that preceded the highly important papers. If you like your results we are grateful for a citation.

  1. Izsak, R.; Neese, F.
     An overlap fitted chain of spheres exchange method
     J. Chem. Phys. 2011 135 , 144105
     doi.org/10.1063/1.3646921
  2. Izsak, R.; Hansen, A.; Neese, F.
     The resolution of identity and chain of spheres approximations for the LPNO-CCSD singles Fock term
     Molec. Phys. 2012 110 , 2413-2417
     doi.org/10.1080/00268976.2012.687466
  3. Neese, F.
     The ORCA program system
     WIRES Comput. Molec. Sci. 2012 2(1), 73-78
     doi.org/10.1002/wcms.81
  4. Izsak, R.; Neese, F.; Klopper, W.
     Robust fitting techniques in the chain of spheres approximation to the Fock exchange: The role of the complementary space
     J. Chem. Phys. 2013 139 , 
     doi.org/10.1063/1.4819264
  5. Neese, F.
     Software update: the ORCA program system, version 4.0
     WIRES Comput. Molec. Sci. 2018 8(1), 1-6
     doi.org/10.1002/wcms.1327
  6. Neese, F.; Wennmohs, F.; Becker, U.; Riplinger, C.
     The ORCA quantum chemistry program package
     J. Chem. Phys. 2020 152(22), 224108
     doi.org/10.1063/5.0004608
  7. Neese, F.
     Software update: The ORCA program system—Version 5.0
     WIRES Comput. Molec. Sci. 2022 12(1), e1606
     doi.org/10.1002/wcms.1606

List of optional additional citations

  1. Neese, F.
     Approximate second-order SCF convergence for spin unrestricted wavefunctions
     Chem. Phys. Lett. 2000 325(1-3), 93-98
     doi.org/10.1016/s0009-2614(00)00662-x

Timings for individual modules:

Sum of individual times          ...       45.737 sec (=   0.762 min)
Startup calculation              ...        6.385 sec (=   0.106 min)  14.0 %
SCF iterations                   ...       15.790 sec (=   0.263 min)  34.5 %
Property integrals               ...        5.974 sec (=   0.100 min)  13.1 %
SCF Response                     ...        2.948 sec (=   0.049 min)   6.4 %
Property calculations            ...        6.764 sec (=   0.113 min)  14.8 %
SCF Gradient evaluation          ...        7.867 sec (=   0.131 min)  17.2 %
Geometry relaxation              ...        0.008 sec (=   0.000 min)   0.0 %
                             ****ORCA TERMINATED NORMALLY****
TOTAL RUN TIME: 0 days 0 hours 0 minutes 49 seconds 416 msec
