11
* (null), Energy   -1000.0000000
C     1.357708    0.575724   -0.019982    0.025951   -0.078028   -0.946128
C     1.169529   -0.796569    0.088269   -0.002081    0.006843    0.082077
N     0.012816   -1.463992    0.112098   -0.023065    0.070551    0.849174
C    -1.137586   -0.728374    0.019659   -0.001549    0.004310    0.053708
N    -0.987337    0.674496   -0.092673    0.010015   -0.030354   -0.363598
C     0.198487    1.422060   -0.121503    0.005059   -0.015518   -0.184366
O    -2.278352   -1.195100    0.027552    0.007428   -0.023507   -0.285567
O     0.157268    2.653978   -0.224886   -0.018177    0.055125    0.667129
H     2.071990   -1.429182    0.165269   -0.010736    0.032422    0.393515
H    -1.849786    1.206815   -0.161518    0.003124   -0.010975   -0.127952
H     2.348454    1.034025   -0.030636    0.033294   -0.100091   -1.216579
11
* Frequency(7)  192.1423
C     1.360657    0.566857   -0.127504    0.025951   -0.078028   -0.946128
C     1.169292   -0.795792    0.097597   -0.002081    0.006843    0.082077
N     0.010195   -1.455975    0.208602   -0.023065    0.070551    0.849174
C    -1.137762   -0.727884    0.025762   -0.001549    0.004310    0.053708
N    -0.986199    0.671047   -0.133994    0.010015   -0.030354   -0.363598
C     0.199062    1.420297   -0.142455    0.005059   -0.015518   -0.184366
O    -2.277508   -1.197772   -0.004901    0.007428   -0.023507   -0.285567
O     0.155202    2.660243   -0.149070   -0.018177    0.055125    0.667129
H     2.070770   -1.425497    0.209990   -0.010736    0.032422    0.393515
H    -1.849431    1.205567   -0.176059    0.003124   -0.010975   -0.127952
H     2.352238    1.022650   -0.168894    0.033294   -0.100091   -1.216579
11
* Frequency(7)  192.1423
C     1.363287    0.558950   -0.223375    0.025951   -0.078028   -0.946128
C     1.169082   -0.795098    0.105914   -0.002081    0.006843    0.082077
N     0.007858   -1.448826    0.294649   -0.023065    0.070551    0.849174
C    -1.137919   -0.727448    0.031205   -0.001549    0.004310    0.053708
N    -0.985184    0.667971   -0.170837    0.010015   -0.030354   -0.363598
C     0.199574    1.418724   -0.161137    0.005059   -0.015518   -0.184366
O    -2.276756   -1.200154   -0.033838    0.007428   -0.023507   -0.285567
O     0.153360    2.665829   -0.081470   -0.018177    0.055125    0.667129
H     2.069683   -1.422212    0.249865   -0.010736    0.032422    0.393515
H    -1.849114    1.204455   -0.189025    0.003124   -0.010975   -0.127952
H     2.355611    1.012507   -0.292169    0.033294   -0.100091   -1.216579
11
* Frequency(7)  192.1423
C     1.365312    0.552861   -0.297205    0.025951   -0.078028   -0.946128
C     1.168919   -0.794564    0.112318   -0.002081    0.006843    0.082077
N     0.006058   -1.443320    0.360913   -0.023065    0.070551    0.849174
C    -1.138040   -0.727111    0.035396   -0.001549    0.004310    0.053708
N    -0.984403    0.665602   -0.199210    0.010015   -0.030354   -0.363598
C     0.199969    1.417514   -0.175523    0.005059   -0.015518   -0.184366
O    -2.276176   -1.201988   -0.056122    0.007428   -0.023507   -0.285567
O     0.151942    2.670130   -0.029411   -0.018177    0.055125    0.667129
H     2.068845   -1.419682    0.280573   -0.010736    0.032422    0.393515
H    -1.848870    1.203599   -0.199009    0.003124   -0.010975   -0.127952
H     2.358209    1.004697   -0.387104    0.033294   -0.100091   -1.216579
11
* Frequency(7)  192.1423
C     1.366513    0.549250   -0.340993    0.025951   -0.078028   -0.946128
C     1.168823   -0.794248    0.116117   -0.002081    0.006843    0.082077
N     0.004990   -1.440055    0.400214   -0.023065    0.070551    0.849174
C    -1.138111   -0.726912    0.037882   -0.001549    0.004310    0.053708
N    -0.983939    0.664197   -0.216038    0.010015   -0.030354   -0.363598
C     0.200203    1.416795   -0.184056    0.005059   -0.015518   -0.184366
O    -2.275832   -1.203076   -0.069338    0.007428   -0.023507   -0.285567
O     0.151100    2.672681    0.001465   -0.018177    0.055125    0.667129
H     2.068348   -1.418181    0.298785   -0.010736    0.032422    0.393515
H    -1.848726    1.203091   -0.204931    0.003124   -0.010975   -0.127952
H     2.359750    1.000065   -0.443409    0.033294   -0.100091   -1.216579
11
* Frequency(7)  192.1423
C     1.366760    0.548508   -0.349995    0.025951   -0.078028   -0.946128
C     1.168803   -0.794183    0.116898   -0.002081    0.006843    0.082077
N     0.004771   -1.439384    0.408294   -0.023065    0.070551    0.849174
C    -1.138126   -0.726871    0.038393   -0.001549    0.004310    0.053708
N    -0.983844    0.663908   -0.219497    0.010015   -0.030354   -0.363598
C     0.200251    1.416648   -0.185810    0.005059   -0.015518   -0.184366
O    -2.275761   -1.203300   -0.072055    0.007428   -0.023507   -0.285567
O     0.150928    2.673206    0.007812   -0.018177    0.055125    0.667129
H     2.068246   -1.417873    0.302529   -0.010736    0.032422    0.393515
H    -1.848696    1.202986   -0.206149    0.003124   -0.010975   -0.127952
H     2.360067    0.999112   -0.454984    0.033294   -0.100091   -1.216579
11
* Frequency(7)  192.1423
C     1.366026    0.550715   -0.323235    0.025951   -0.078028   -0.946128
C     1.168862   -0.794376    0.114577   -0.002081    0.006843    0.082077
N     0.005423   -1.441379    0.384276   -0.023065    0.070551    0.849174
C    -1.138082   -0.726993    0.036873   -0.001549    0.004310    0.053708
N    -0.984127    0.664767   -0.209213    0.010015   -0.030354   -0.363598
C     0.200108    1.417087   -0.180596    0.005059   -0.015518   -0.184366
O    -2.275972   -1.202635   -0.063978    0.007428   -0.023507   -0.285567
O     0.151442    2.671647   -0.011057   -0.018177    0.055125    0.667129
H     2.068549   -1.418790    0.291399   -0.010736    0.032422    0.393515
H    -1.848784    1.203297   -0.202530    0.003124   -0.010975   -0.127952
H     2.359125    1.001943   -0.420575    0.033294   -0.100091   -1.216579
11
* Frequency(7)  192.1423
C     1.364390    0.555632   -0.263613    0.025951   -0.078028   -0.946128
C     1.168993   -0.794807    0.109404   -0.002081    0.006843    0.082077
N     0.006877   -1.445825    0.330763   -0.023065    0.070551    0.849174
C    -1.137985   -0.727264    0.033489   -0.001549    0.004310    0.053708
N    -0.984759    0.666680   -0.186300    0.010015   -0.030354   -0.363598
C     0.199789    1.418065   -0.168978    0.005059   -0.015518   -0.184366
O    -2.276440   -1.201153   -0.045983    0.007428   -0.023507   -0.285567
O     0.152587    2.668173   -0.053098   -0.018177    0.055125    0.667129
H     2.069226   -1.420833    0.266601   -0.010736    0.032422    0.393515
H    -1.848981    1.203988   -0.194466    0.003124   -0.010975   -0.127952
H     2.357027    1.008251   -0.343909    0.033294   -0.100091   -1.216579
11
* Frequency(7)  192.1423
C     1.362031    0.562726   -0.177589    0.025951   -0.078028   -0.946128
C     1.169182   -0.795429    0.101942   -0.002081    0.006843    0.082077
N     0.008974   -1.452240    0.253555   -0.023065    0.070551    0.849174
C    -1.137844   -0.727656    0.028606   -0.001549    0.004310    0.053708
N    -0.985669    0.669440   -0.153242    0.010015   -0.030354   -0.363598
C     0.199329    1.419475   -0.152215    0.005059   -0.015518   -0.184366
O    -2.277115   -1.199016   -0.020018    0.007428   -0.023507   -0.285567
O     0.154240    2.663161   -0.113754   -0.018177    0.055125    0.667129
H     2.070202   -1.423781    0.230822   -0.010736    0.032422    0.393515
H    -1.849265    1.204986   -0.182833    0.003124   -0.010975   -0.127952
H     2.354000    1.017351   -0.233296    0.033294   -0.100091   -1.216579
11
* Frequency(7)  192.1423
C     1.359203    0.571229   -0.074486    0.025951   -0.078028   -0.946128
C     1.169409   -0.796175    0.092997   -0.002081    0.006843    0.082077
N     0.011487   -1.459928    0.161017   -0.023065    0.070551    0.849174
C    -1.137675   -0.728126    0.022753   -0.001549    0.004310    0.053708
N    -0.986760    0.672748   -0.113619    0.010015   -0.030354   -0.363598
C     0.198778    1.421166   -0.132124    0.005059   -0.015518   -0.184366
O    -2.277924   -1.196454    0.011101    0.007428   -0.023507   -0.285567
O     0.156220    2.657154   -0.186454   -0.018177    0.055125    0.667129
H     2.071372   -1.427314    0.187939   -0.010736    0.032422    0.393515
H    -1.849606    1.206182   -0.168889    0.003124   -0.010975   -0.127952
H     2.350372    1.028258   -0.100721    0.033294   -0.100091   -1.216579
11
* Frequency(7)  192.1423
C     1.356213    0.580219    0.034523    0.025951   -0.078028   -0.946128
C     1.169649   -0.796964    0.083541   -0.002081    0.006843    0.082077
N     0.014145   -1.468057    0.063179   -0.023065    0.070551    0.849174
C    -1.137497   -0.728622    0.016565   -0.001549    0.004310    0.053708
N    -0.987914    0.676245   -0.071727    0.010015   -0.030354   -0.363598
C     0.198195    1.422954   -0.110882    0.005059   -0.015518   -0.184366
O    -2.278780   -1.193746    0.044003    0.007428   -0.023507   -0.285567
O     0.158315    2.650802   -0.263318   -0.018177    0.055125    0.667129
H     2.072609   -1.431050    0.142600   -0.010736    0.032422    0.393515
H    -1.849966    1.207447   -0.154147    0.003124   -0.010975   -0.127952
H     2.346536    1.039791    0.039449    0.033294   -0.100091   -1.216579
11
* Frequency(7)  192.1423
C     1.353385    0.588722    0.137626    0.025951   -0.078028   -0.946128
C     1.169875   -0.797709    0.074597   -0.002081    0.006843    0.082077
N     0.016658   -1.475745   -0.029359   -0.023065    0.070551    0.849174
C    -1.137328   -0.729092    0.010712   -0.001549    0.004310    0.053708
N    -0.989006    0.679553   -0.032104    0.010015   -0.030354   -0.363598
C     0.197644    1.424645   -0.090791    0.005059   -0.015518   -0.184366
O    -2.279590   -1.191184    0.075122    0.007428   -0.023507   -0.285567
O     0.160295    2.644795   -0.336017   -0.018177    0.055125    0.667129
H     2.073779   -1.434583    0.099717   -0.010736    0.032422    0.393515
H    -1.850306    1.208643   -0.140204    0.003124   -0.010975   -0.127952
H     2.342908    1.050698    0.172024    0.033294   -0.100091   -1.216579
11
* Frequency(7)  192.1423
C     1.351025    0.595817    0.223649    0.025951   -0.078028   -0.946128
C     1.170065   -0.798331    0.067134   -0.002081    0.006843    0.082077
N     0.018755   -1.482159   -0.106567   -0.023065    0.070551    0.849174
C    -1.137187   -0.729484    0.005829   -0.001549    0.004310    0.053708
N    -0.989916    0.682313    0.000955    0.010015   -0.030354   -0.363598
C     0.197184    1.426056   -0.074028    0.005059   -0.015518   -0.184366
O    -2.280265   -1.189047    0.101086    0.007428   -0.023507   -0.285567
O     0.161948    2.639783   -0.396673   -0.018177    0.055125    0.667129
H     2.074755   -1.437531    0.063938   -0.010736    0.032422    0.393515
H    -1.850590    1.209641   -0.128570    0.003124   -0.010975   -0.127952
H     2.339881    1.059798    0.282637    0.033294   -0.100091   -1.216579
11
* Frequency(7)  192.1423
C     1.349390    0.600734    0.283272    0.025951   -0.078028   -0.946128
C     1.170196   -0.798763    0.061962   -0.002081    0.006843    0.082077
N     0.020209   -1.486605   -0.160080   -0.023065    0.070551    0.849174
C    -1.137090   -0.729756    0.002444   -0.001549    0.004310    0.053708
N    -0.990547    0.684225    0.023868    0.010015   -0.030354   -0.363598
C     0.196865    1.427034   -0.062410    0.005059   -0.015518   -0.184366
O    -2.280733   -1.187566    0.119082    0.007428   -0.023507   -0.285567
O     0.163094    2.636309   -0.438714   -0.018177    0.055125    0.667129
H     2.075432   -1.439574    0.039140   -0.010736    0.032422    0.393515
H    -1.850787    1.210332   -0.120507    0.003124   -0.010975   -0.127952
H     2.337783    1.066106    0.359303    0.033294   -0.100091   -1.216579
11
* Frequency(7)  192.1423
C     1.348656    0.602941    0.310032    0.025951   -0.078028   -0.946128
C     1.170255   -0.798956    0.059640   -0.002081    0.006843    0.082077
N     0.020861   -1.488601   -0.184098   -0.023065    0.070551    0.849174
C    -1.137046   -0.729877    0.000925   -0.001549    0.004310    0.053708
N    -0.990831    0.685084    0.034152    0.010015   -0.030354   -0.363598
C     0.196722    1.427473   -0.057195    0.005059   -0.015518   -0.184366
O    -2.280943   -1.186901    0.127159    0.007428   -0.023507   -0.285567
O     0.163608    2.634750   -0.457583   -0.018177    0.055125    0.667129
H     2.075735   -1.440491    0.028010   -0.010736    0.032422    0.393515
H    -1.850875    1.210643   -0.116888    0.003124   -0.010975   -0.127952
H     2.336841    1.068937    0.393712    0.033294   -0.100091   -1.216579
11
* Frequency(7)  192.1423
C     1.348903    0.602198    0.301030    0.025951   -0.078028   -0.946128
C     1.170235   -0.798891    0.060421   -0.002081    0.006843    0.082077
N     0.020642   -1.487930   -0.176018   -0.023065    0.070551    0.849174
C    -1.137060   -0.729836    0.001436   -0.001549    0.004310    0.053708
N    -0.990735    0.684795    0.030692    0.010015   -0.030354   -0.363598
C     0.196770    1.427325   -0.058949    0.005059   -0.015518   -0.184366
O    -2.280873   -1.187124    0.124442    0.007428   -0.023507   -0.285567
O     0.163435    2.635275   -0.451236   -0.018177    0.055125    0.667129
H     2.075633   -1.440182    0.031754   -0.010736    0.032422    0.393515
H    -1.850845    1.210538   -0.118106    0.003124   -0.010975   -0.127952
H     2.337158    1.067985    0.382137    0.033294   -0.100091   -1.216579
11
* Frequency(7)  192.1423
C     1.350104    0.598587    0.257242    0.025951   -0.078028   -0.946128
C     1.170138   -0.798574    0.064220   -0.002081    0.006843    0.082077
N     0.019574   -1.484664   -0.136717   -0.023065    0.070551    0.849174
C    -1.137132   -0.729637    0.003922   -0.001549    0.004310    0.053708
N    -0.990272    0.683390    0.013864    0.010015   -0.030354   -0.363598
C     0.197004    1.426607   -0.067482    0.005059   -0.015518   -0.184366
O    -2.280529   -1.188212    0.111225    0.007428   -0.023507   -0.285567
O     0.162593    2.637826   -0.420360   -0.018177    0.055125    0.667129
H     2.075136   -1.438682    0.049966   -0.010736    0.032422    0.393515
H    -1.850701    1.210030   -0.124028    0.003124   -0.010975   -0.127952
H     2.338699    1.063352    0.325832    0.033294   -0.100091   -1.216579
11
* Frequency(7)  192.1423
C     1.352129    0.592498    0.183412    0.025951   -0.078028   -0.946128
C     1.169976   -0.798040    0.070625   -0.002081    0.006843    0.082077
N     0.017775   -1.479159   -0.070453   -0.023065    0.070551    0.849174
C    -1.137253   -0.729301    0.008113   -0.001549    0.004310    0.053708
N    -0.989490    0.681022   -0.014508    0.010015   -0.030354   -0.363598
C     0.197399    1.425396   -0.081869    0.005059   -0.015518   -0.184366
O    -2.279949   -1.190047    0.088941    0.007428   -0.023507   -0.285567
O     0.161175    2.642127   -0.368301   -0.018177    0.055125    0.667129
H     2.074298   -1.436152    0.080674   -0.010736    0.032422    0.393515
H    -1.850457    1.209174   -0.134012    0.003124   -0.010975   -0.127952
H     2.341297    1.055542    0.230897    0.033294   -0.100091   -1.216579
11
* Frequency(7)  192.1423
C     1.354759    0.584592    0.087541    0.025951   -0.078028   -0.946128
C     1.169765   -0.797347    0.078941   -0.002081    0.006843    0.082077
N     0.015437   -1.472010    0.015594   -0.023065    0.070551    0.849174
C    -1.137410   -0.728864    0.013555   -0.001549    0.004310    0.053708
N    -0.988475    0.677946   -0.051352    0.010015   -0.030354   -0.363598
C     0.197912    1.423824   -0.100550    0.005059   -0.015518   -0.184366
O    -2.279197   -1.192429    0.060005    0.007428   -0.023507   -0.285567
O     0.159333    2.647713   -0.300701   -0.018177    0.055125    0.667129
H     2.073211   -1.432867    0.120549   -0.010736    0.032422    0.393515
H    -1.850141    1.208062   -0.146977    0.003124   -0.010975   -0.127952
H     2.344670    1.045399    0.107622    0.033294   -0.100091   -1.216579
11
* Frequency(7)  192.1423
C     1.357708    0.575724   -0.019982    0.025951   -0.078028   -0.946128
C     1.169529   -0.796569    0.088269   -0.002081    0.006843    0.082077
N     0.012816   -1.463992    0.112098   -0.023065    0.070551    0.849174
C    -1.137586   -0.728374    0.019659   -0.001549    0.004310    0.053708
N    -0.987337    0.674496   -0.092673    0.010015   -0.030354   -0.363598
C     0.198487    1.422060   -0.121503    0.005059   -0.015518   -0.184366
O    -2.278352   -1.195100    0.027552    0.007428   -0.023507   -0.285567
O     0.157268    2.653978   -0.224886   -0.018177    0.055125    0.667129
H     2.071990   -1.429182    0.165269   -0.010736    0.032422    0.393515
H    -1.849786    1.206815   -0.161518    0.003124   -0.010975   -0.127952
H     2.348454    1.034025   -0.030636    0.033294   -0.100091   -1.216579
