11
* (null), Energy   -1000.0000000
C     1.591454    0.406609    0.009810    0.005539   -0.009456   -0.117450
C     1.402862   -0.965542    0.118363   -0.010095    0.028258    0.339371
N     0.246024   -1.632751    0.142050    0.000261   -0.002154   -0.025705
C    -0.904486   -0.897558    0.049520    0.003040   -0.007564   -0.091052
N    -0.754011    0.505509   -0.063362   -0.002491    0.000628    0.019996
C     0.431975    1.252895   -0.092416    0.000998   -0.003059   -0.042290
O    -2.045071   -1.364389    0.057523    0.000218    0.002160    0.019055
O     0.390516    2.484935   -0.194533   -0.000068    0.001148    0.008622
H     2.305441   -1.598210    0.195810    0.049832   -0.161157   -1.906168
H    -1.616489    1.037825   -0.130328   -0.006364   -0.001608    0.052086
H     2.582079    0.864994   -0.000426   -0.008712    0.034008    0.438659
11
* Frequency(19)  991.3409
C     1.592084    0.405535   -0.003537    0.005539   -0.009456   -0.117450
C     1.401715   -0.962330    0.156931   -0.010095    0.028258    0.339371
N     0.246054   -1.632995    0.139128    0.000261   -0.002154   -0.025705
C    -0.904141   -0.898418    0.039172    0.003040   -0.007564   -0.091052
N    -0.754294    0.505581   -0.061089   -0.002491    0.000628    0.019996
C     0.432089    1.252548   -0.097222    0.000998   -0.003059   -0.042290
O    -2.045046   -1.364144    0.059688    0.000218    0.002160    0.019055
O     0.390508    2.485065   -0.193553   -0.000068    0.001148    0.008622
H     2.311104   -1.616525   -0.020816    0.049832   -0.161157   -1.906168
H    -1.617212    1.037642   -0.124408   -0.006364   -0.001608    0.052086
H     2.581089    0.868858    0.049425   -0.008712    0.034008    0.438659
11
* Frequency(19)  991.3409
C     1.592645    0.404576   -0.015438    0.005539   -0.009456   -0.117450
C     1.400692   -0.959467    0.191319   -0.010095    0.028258    0.339371
N     0.246080   -1.633214    0.136524    0.000261   -0.002154   -0.025705
C    -0.903833   -0.899184    0.029946    0.003040   -0.007564   -0.091052
N    -0.754547    0.505644   -0.059063   -0.002491    0.000628    0.019996
C     0.432190    1.252238   -0.101507    0.000998   -0.003059   -0.042290
O    -2.045024   -1.363925    0.061619    0.000218    0.002160    0.019055
O     0.390502    2.485182   -0.192680   -0.000068    0.001148    0.008622
H     2.316154   -1.632855   -0.213967    0.049832   -0.161157   -1.906168
H    -1.617857    1.037479   -0.119131   -0.006364   -0.001608    0.052086
H     2.580206    0.872304    0.093875   -0.008712    0.034008    0.438659
11
* Frequency(19)  991.3409
C     1.593077    0.403838   -0.024603    0.005539   -0.009456   -0.117450
C     1.399904   -0.957262    0.217802   -0.010095    0.028258    0.339371
N     0.246100   -1.633382    0.134518    0.000261   -0.002154   -0.025705
C    -0.903596   -0.899775    0.022840    0.003040   -0.007564   -0.091052
N    -0.754741    0.505693   -0.057503   -0.002491    0.000628    0.019996
C     0.432268    1.251999   -0.104807    0.000998   -0.003059   -0.042290
O    -2.045007   -1.363756    0.063106    0.000218    0.002160    0.019055
O     0.390496    2.485271   -0.192007   -0.000068    0.001148    0.008622
H     2.320042   -1.645430   -0.362713    0.049832   -0.161157   -1.906168
H    -1.618354    1.037354   -0.115066   -0.006364   -0.001608    0.052086
H     2.579526    0.874958    0.128105   -0.008712    0.034008    0.438659
11
* Frequency(19)  991.3409
C     1.593334    0.403401   -0.030039    0.005539   -0.009456   -0.117450
C     1.399437   -0.955954    0.233509   -0.010095    0.028258    0.339371
N     0.246112   -1.633481    0.133328    0.000261   -0.002154   -0.025705
C    -0.903455   -0.900125    0.018626    0.003040   -0.007564   -0.091052
N    -0.754856    0.505722   -0.056577   -0.002491    0.000628    0.019996
C     0.432314    1.251857   -0.106765    0.000998   -0.003059   -0.042290
O    -2.044997   -1.363656    0.063988    0.000218    0.002160    0.019055
O     0.390493    2.485324   -0.191608   -0.000068    0.001148    0.008622
H     2.322349   -1.652889   -0.450934    0.049832   -0.161157   -1.906168
H    -1.618648    1.037279   -0.112656   -0.006364   -0.001608    0.052086
H     2.579123    0.876532    0.148407   -0.008712    0.034008    0.438659
11
* Frequency(19)  991.3409
C     1.593386    0.403311   -0.031157    0.005539   -0.009456   -0.117450
C     1.399341   -0.955685    0.236738   -0.010095    0.028258    0.339371
N     0.246115   -1.633502    0.133084    0.000261   -0.002154   -0.025705
C    -0.903426   -0.900197    0.017760    0.003040   -0.007564   -0.091052
N    -0.754880    0.505728   -0.056387   -0.002491    0.000628    0.019996
C     0.432323    1.251828   -0.107167    0.000998   -0.003059   -0.042290
O    -2.044995   -1.363636    0.064169    0.000218    0.002160    0.019055
O     0.390492    2.485335   -0.191526   -0.000068    0.001148    0.008622
H     2.322823   -1.654422   -0.469070    0.049832   -0.161157   -1.906168
H    -1.618709    1.037264   -0.112160   -0.006364   -0.001608    0.052086
H     2.579040    0.876856    0.152580   -0.008712    0.034008    0.438659
11
* Frequency(19)  991.3409
C     1.593230    0.403578   -0.027835    0.005539   -0.009456   -0.117450
C     1.399626   -0.956484    0.227139   -0.010095    0.028258    0.339371
N     0.246108   -1.633441    0.133811    0.000261   -0.002154   -0.025705
C    -0.903512   -0.899983    0.020335    0.003040   -0.007564   -0.091052
N    -0.754810    0.505710   -0.056953   -0.002491    0.000628    0.019996
C     0.432295    1.251915   -0.105971    0.000998   -0.003059   -0.042290
O    -2.045001   -1.363697    0.063630    0.000218    0.002160    0.019055
O     0.390494    2.485303   -0.191770   -0.000068    0.001148    0.008622
H     2.321413   -1.649864   -0.415156    0.049832   -0.161157   -1.906168
H    -1.618529    1.037309   -0.113633   -0.006364   -0.001608    0.052086
H     2.579287    0.875894    0.140173   -0.008712    0.034008    0.438659
11
* Frequency(19)  991.3409
C     1.592881    0.404174   -0.020433    0.005539   -0.009456   -0.117450
C     1.400263   -0.958265    0.205753   -0.010095    0.028258    0.339371
N     0.246091   -1.633305    0.135431    0.000261   -0.002154   -0.025705
C    -0.903704   -0.899506    0.026073    0.003040   -0.007564   -0.091052
N    -0.754653    0.505671   -0.058213   -0.002491    0.000628    0.019996
C     0.432232    1.252107   -0.103306    0.000998   -0.003059   -0.042290
O    -2.045015   -1.363833    0.062430    0.000218    0.002160    0.019055
O     0.390499    2.485231   -0.192313   -0.000068    0.001148    0.008622
H     2.318273   -1.639708   -0.295035    0.049832   -0.161157   -1.906168
H    -1.618128    1.037411   -0.116916   -0.006364   -0.001608    0.052086
H     2.579836    0.873751    0.112530   -0.008712    0.034008    0.438659
11
* Frequency(19)  991.3409
C     1.592377    0.405034   -0.009754    0.005539   -0.009456   -0.117450
C     1.401180   -0.960834    0.174896   -0.010095    0.028258    0.339371
N     0.246067   -1.633109    0.137768    0.000261   -0.002154   -0.025705
C    -0.903980   -0.898818    0.034352    0.003040   -0.007564   -0.091052
N    -0.754426    0.505614   -0.060031   -0.002491    0.000628    0.019996
C     0.432141    1.252386   -0.099461    0.000998   -0.003059   -0.042290
O    -2.045034   -1.364029    0.060697    0.000218    0.002160    0.019055
O     0.390505    2.485126   -0.193097   -0.000068    0.001148    0.008622
H     2.313742   -1.625056   -0.121722    0.049832   -0.161157   -1.906168
H    -1.617549    1.037557   -0.121651   -0.006364   -0.001608    0.052086
H     2.580628    0.870659    0.072647   -0.008712    0.034008    0.438659
11
* Frequency(19)  991.3409
C     1.591773    0.406064    0.003044    0.005539   -0.009456   -0.117450
C     1.402280   -0.963914    0.137914   -0.010095    0.028258    0.339371
N     0.246039   -1.632875    0.140569    0.000261   -0.002154   -0.025705
C    -0.904311   -0.897994    0.044274    0.003040   -0.007564   -0.091052
N    -0.754155    0.505545   -0.062210   -0.002491    0.000628    0.019996
C     0.432033    1.252719   -0.094852    0.000998   -0.003059   -0.042290
O    -2.045058   -1.364265    0.058621    0.000218    0.002160    0.019055
O     0.390512    2.485001   -0.194036   -0.000068    0.001148    0.008622
H     2.308312   -1.607494    0.085999    0.049832   -0.161157   -1.906168
H    -1.616855    1.037732   -0.127327   -0.006364   -0.001608    0.052086
H     2.581577    0.866953    0.024844   -0.008712    0.034008    0.438659
11
* Frequency(19)  991.3409
C     1.591135    0.407154    0.016577    0.005539   -0.009456   -0.117450
C     1.403444   -0.967170    0.098813   -0.010095    0.028258    0.339371
N     0.246009   -1.632627    0.143530    0.000261   -0.002154   -0.025705
C    -0.904662   -0.897123    0.054765    0.003040   -0.007564   -0.091052
N    -0.753868    0.505473   -0.064514   -0.002491    0.000628    0.019996
C     0.431918    1.253071   -0.089980    0.000998   -0.003059   -0.042290
O    -2.045083   -1.364513    0.056425    0.000218    0.002160    0.019055
O     0.390520    2.484869   -0.195030   -0.000068    0.001148    0.008622
H     2.302570   -1.588926    0.305621    0.049832   -0.161157   -1.906168
H    -1.616122    1.037917   -0.133328   -0.006364   -0.001608    0.052086
H     2.582581    0.863034   -0.025696   -0.008712    0.034008    0.438659
11
* Frequency(19)  991.3409
C     1.590532    0.408185    0.029375    0.005539   -0.009456   -0.117450
C     1.404544   -0.970249    0.061830   -0.010095    0.028258    0.339371
N     0.245980   -1.632392    0.146332    0.000261   -0.002154   -0.025705
C    -0.904993   -0.896298    0.064687    0.003040   -0.007564   -0.091052
N    -0.753596    0.505405   -0.066693   -0.002491    0.000628    0.019996
C     0.431809    1.253405   -0.085371    0.000998   -0.003059   -0.042290
O    -2.045107   -1.364749    0.054349    0.000218    0.002160    0.019055
O     0.390527    2.484743   -0.195969   -0.000068    0.001148    0.008622
H     2.297140   -1.571364    0.513342    0.049832   -0.161157   -1.906168
H    -1.615429    1.038093   -0.139004   -0.006364   -0.001608    0.052086
H     2.583531    0.859328   -0.073498   -0.008712    0.034008    0.438659
11
* Frequency(19)  991.3409
C     1.590028    0.409044    0.040054    0.005539   -0.009456   -0.117450
C     1.405461   -0.972818    0.030974   -0.010095    0.028258    0.339371
N     0.245957   -1.632196    0.148669    0.000261   -0.002154   -0.025705
C    -0.905269   -0.895610    0.072966    0.003040   -0.007564   -0.091052
N    -0.753370    0.505348   -0.068511   -0.002491    0.000628    0.019996
C     0.431718    1.253683   -0.081526    0.000998   -0.003059   -0.042290
O    -2.045127   -1.364945    0.052616    0.000218    0.002160    0.019055
O     0.390534    2.484639   -0.196753   -0.000068    0.001148    0.008622
H     2.292609   -1.556712    0.686655    0.049832   -0.161157   -1.906168
H    -1.614850    1.038239   -0.143740   -0.006364   -0.001608    0.052086
H     2.584323    0.856236   -0.113382   -0.008712    0.034008    0.438659
11
* Frequency(19)  991.3409
C     1.589679    0.409640    0.047456    0.005539   -0.009456   -0.117450
C     1.406098   -0.974599    0.009588   -0.010095    0.028258    0.339371
N     0.245940   -1.632060    0.150289    0.000261   -0.002154   -0.025705
C    -0.905461   -0.895134    0.078704    0.003040   -0.007564   -0.091052
N    -0.753213    0.505308   -0.069771   -0.002491    0.000628    0.019996
C     0.431655    1.253876   -0.078861    0.000998   -0.003059   -0.042290
O    -2.045141   -1.365081    0.051416    0.000218    0.002160    0.019055
O     0.390538    2.484567   -0.197296   -0.000068    0.001148    0.008622
H     2.289469   -1.546556    0.806776    0.049832   -0.161157   -1.906168
H    -1.614449    1.038340   -0.147022   -0.006364   -0.001608    0.052086
H     2.584872    0.854093   -0.141025   -0.008712    0.034008    0.438659
11
* Frequency(19)  991.3409
C     1.589522    0.409908    0.050777    0.005539   -0.009456   -0.117450
C     1.406383   -0.975398   -0.000011   -0.010095    0.028258    0.339371
N     0.245933   -1.631999    0.151016    0.000261   -0.002154   -0.025705
C    -0.905547   -0.894920    0.081279    0.003040   -0.007564   -0.091052
N    -0.753142    0.505290   -0.070336   -0.002491    0.000628    0.019996
C     0.431627    1.253962   -0.077665    0.000998   -0.003059   -0.042290
O    -2.045147   -1.365142    0.050877    0.000218    0.002160    0.019055
O     0.390540    2.484534   -0.197540   -0.000068    0.001148    0.008622
H     2.288059   -1.541998    0.860690    0.049832   -0.161157   -1.906168
H    -1.614269    1.038386   -0.148495   -0.006364   -0.001608    0.052086
H     2.585118    0.853131   -0.153432   -0.008712    0.034008    0.438659
11
* Frequency(19)  991.3409
C     1.589575    0.409818    0.049660    0.005539   -0.009456   -0.117450
C     1.406287   -0.975130    0.003218   -0.010095    0.028258    0.339371
N     0.245935   -1.632020    0.150771    0.000261   -0.002154   -0.025705
C    -0.905518   -0.894992    0.080413    0.003040   -0.007564   -0.091052
N    -0.753166    0.505296   -0.070146   -0.002491    0.000628    0.019996
C     0.431636    1.253933   -0.078067    0.000998   -0.003059   -0.042290
O    -2.045145   -1.365122    0.051058    0.000218    0.002160    0.019055
O     0.390539    2.484545   -0.197458   -0.000068    0.001148    0.008622
H     2.288533   -1.543531    0.842554    0.049832   -0.161157   -1.906168
H    -1.614330    1.038370   -0.148000   -0.006364   -0.001608    0.052086
H     2.585035    0.853455   -0.149259   -0.008712    0.034008    0.438659
11
* Frequency(19)  991.3409
C     1.589831    0.409380    0.044224    0.005539   -0.009456   -0.117450
C     1.405820   -0.973822    0.018925   -0.010095    0.028258    0.339371
N     0.245947   -1.632120    0.149581    0.000261   -0.002154   -0.025705
C    -0.905377   -0.895342    0.076199    0.003040   -0.007564   -0.091052
N    -0.753281    0.505325   -0.069221   -0.002491    0.000628    0.019996
C     0.431683    1.253792   -0.080025    0.000998   -0.003059   -0.042290
O    -2.045135   -1.365022    0.051940    0.000218    0.002160    0.019055
O     0.390536    2.484598   -0.197059   -0.000068    0.001148    0.008622
H     2.290840   -1.550990    0.754333    0.049832   -0.161157   -1.906168
H    -1.614624    1.038296   -0.145589   -0.006364   -0.001608    0.052086
H     2.584632    0.855029   -0.128957   -0.008712    0.034008    0.438659
11
* Frequency(19)  991.3409
C     1.590264    0.408642    0.035059    0.005539   -0.009456   -0.117450
C     1.405032   -0.971617    0.045407   -0.010095    0.028258    0.339371
N     0.245968   -1.632288    0.147575    0.000261   -0.002154   -0.025705
C    -0.905140   -0.895932    0.069093    0.003040   -0.007564   -0.091052
N    -0.753476    0.505374   -0.067660   -0.002491    0.000628    0.019996
C     0.431761    1.253553   -0.083325    0.000998   -0.003059   -0.042290
O    -2.045118   -1.364853    0.053427    0.000218    0.002160    0.019055
O     0.390531    2.484688   -0.196387   -0.000068    0.001148    0.008622
H     2.294728   -1.563565    0.605587    0.049832   -0.161157   -1.906168
H    -1.615121    1.038171   -0.141525   -0.006364   -0.001608    0.052086
H     2.583952    0.857683   -0.094726   -0.008712    0.034008    0.438659
11
* Frequency(19)  991.3409
C     1.590825    0.407684    0.023158    0.005539   -0.009456   -0.117450
C     1.404009   -0.968753    0.079796   -0.010095    0.028258    0.339371
N     0.245994   -1.632506    0.144971    0.000261   -0.002154   -0.025705
C    -0.904832   -0.896699    0.059867    0.003040   -0.007564   -0.091052
N    -0.753728    0.505438   -0.065634   -0.002491    0.000628    0.019996
C     0.431862    1.253243   -0.087610    0.000998   -0.003059   -0.042290
O    -2.045096   -1.364634    0.055358    0.000218    0.002160    0.019055
O     0.390524    2.484804   -0.195513   -0.000068    0.001148    0.008622
H     2.299778   -1.579895    0.412436    0.049832   -0.161157   -1.906168
H    -1.615766    1.038008   -0.136247   -0.006364   -0.001608    0.052086
H     2.583069    0.861129   -0.050277   -0.008712    0.034008    0.438659
11
* Frequency(19)  991.3409
C     1.591454    0.406609    0.009810    0.005539   -0.009456   -0.117450
C     1.402862   -0.965542    0.118363   -0.010095    0.028258    0.339371
N     0.246024   -1.632751    0.142050    0.000261   -0.002154   -0.025705
C    -0.904486   -0.897558    0.049520    0.003040   -0.007564   -0.091052
N    -0.754011    0.505509   -0.063362   -0.002491    0.000628    0.019996
C     0.431975    1.252895   -0.092416    0.000998   -0.003059   -0.042290
O    -2.045071   -1.364389    0.057523    0.000218    0.002160    0.019055
O     0.390516    2.484935   -0.194533   -0.000068    0.001148    0.008622
H     2.305441   -1.598210    0.195810    0.049832   -0.161157   -1.906168
H    -1.616489    1.037825   -0.130328   -0.006364   -0.001608    0.052086
H     2.582079    0.864994   -0.000426   -0.008712    0.034008    0.438659
