11
* (null), Energy   -1000.0000000
C     1.357708    0.575724   -0.019982    0.319953   -0.100811    0.017092
C     1.169529   -0.796569    0.088269    0.132520   -0.189253    0.019084
N     0.012816   -1.463992    0.112098    0.106831   -0.282133    0.026196
C    -1.137586   -0.728374    0.019659    0.239826    0.051731    0.002772
N    -0.987337    0.674496   -0.092673    0.567753   -0.295678    0.039983
C     0.198487    1.422060   -0.121503    0.167979   -0.139849    0.016604
O    -2.278352   -1.195100    0.027552   -0.161589    1.021923   -0.089399
O     0.157268    2.653978   -0.224886   -1.147913   -0.181911   -0.016589
H     2.071990   -1.429182    0.165269    0.122177   -0.200217    0.019311
H    -1.849786    1.206815   -0.161518    0.602756   -0.257870    0.041722
H     2.348454    1.034025   -0.030636    0.434831   -0.339152    0.039651
11
* Frequency(8)  391.9770
C     1.394069    0.564268   -0.018039    0.319953   -0.100811    0.017092
C     1.184589   -0.818077    0.090438    0.132520   -0.189253    0.019084
N     0.024957   -1.496055    0.115075    0.106831   -0.282133    0.026196
C    -1.110331   -0.722495    0.019974    0.239826    0.051731    0.002772
N    -0.922815    0.640894   -0.088129    0.567753   -0.295678    0.039983
C     0.217576    1.406167   -0.119616    0.167979   -0.139849    0.016604
O    -2.296716   -1.078964    0.017392   -0.161589    1.021923   -0.089399
O     0.026813    2.633305   -0.226771   -1.147913   -0.181911   -0.016589
H     2.085875   -1.451936    0.167464    0.122177   -0.200217    0.019311
H    -1.781285    1.177509   -0.156777    0.602756   -0.257870    0.041722
H     2.397870    0.995482   -0.026130    0.434831   -0.339152    0.039651
11
* Frequency(8)  391.9770
C     1.426489    0.554052   -0.016307    0.319953   -0.100811    0.017092
C     1.198017   -0.837254    0.092372    0.132520   -0.189253    0.019084
N     0.035782   -1.524644    0.117729    0.106831   -0.282133    0.026196
C    -1.086029   -0.717253    0.020255    0.239826    0.051731    0.002772
N    -0.865285    0.610933   -0.084077    0.567753   -0.295678    0.039983
C     0.234598    1.391996   -0.117933    0.167979   -0.139849    0.016604
O    -2.313090   -0.975413    0.008333   -0.161589    1.021923   -0.089399
O    -0.089504    2.614872   -0.228452   -1.147913   -0.181911   -0.016589
H     2.098256   -1.472223    0.169421    0.122177   -0.200217    0.019311
H    -1.720208    1.151379   -0.152549    0.602756   -0.257870    0.041722
H     2.441932    0.961116   -0.022112    0.434831   -0.339152    0.039651
11
* Frequency(8)  391.9770
C     1.451457    0.546186   -0.014973    0.319953   -0.100811    0.017092
C     1.208358   -0.852022    0.093861    0.132520   -0.189253    0.019084
N     0.044119   -1.546660    0.119774    0.106831   -0.282133    0.026196
C    -1.067315   -0.713216    0.020471    0.239826    0.051731    0.002772
N    -0.820981    0.587860   -0.080957    0.567753   -0.295678    0.039983
C     0.247706    1.381083   -0.116638    0.167979   -0.139849    0.016604
O    -2.325699   -0.895668    0.001357   -0.161589    1.021923   -0.089399
O    -0.179081    2.600677   -0.229746   -1.147913   -0.181911   -0.016589
H     2.107789   -1.487847    0.170928    0.122177   -0.200217    0.019311
H    -1.673173    1.131256   -0.149293    0.602756   -0.257870    0.041722
H     2.475863    0.934650   -0.019018    0.434831   -0.339152    0.039651
11
* Frequency(8)  391.9770
C     1.466265    0.541520   -0.014182    0.319953   -0.100811    0.017092
C     1.214492   -0.860781    0.094744    0.132520   -0.189253    0.019084
N     0.049063   -1.559717    0.120986    0.106831   -0.282133    0.026196
C    -1.056215   -0.710822    0.020599    0.239826    0.051731    0.002772
N    -0.794705    0.574176   -0.079107    0.567753   -0.295678    0.039983
C     0.255480    1.374611   -0.115869    0.167979   -0.139849    0.016604
O    -2.333178   -0.848372   -0.002780   -0.161589    1.021923   -0.089399
O    -0.232208    2.592258   -0.230514   -1.147913   -0.181911   -0.016589
H     2.113444   -1.497114    0.171821    0.122177   -0.200217    0.019311
H    -1.645276    1.119322   -0.147362    0.602756   -0.257870    0.041722
H     2.495988    0.918954   -0.017183    0.434831   -0.339152    0.039651
11
* Frequency(8)  391.9770
C     1.469309    0.540561   -0.014020    0.319953   -0.100811    0.017092
C     1.215752   -0.862582    0.094926    0.132520   -0.189253    0.019084
N     0.050079   -1.562402    0.121235    0.106831   -0.282133    0.026196
C    -1.053934   -0.710330    0.020626    0.239826    0.051731    0.002772
N    -0.789303    0.571362   -0.078726    0.567753   -0.295678    0.039983
C     0.257078    1.373280   -0.115711    0.167979   -0.139849    0.016604
O    -2.334716   -0.838649   -0.003631   -0.161589    1.021923   -0.089399
O    -0.243130    2.590527   -0.230672   -1.147913   -0.181911   -0.016589
H     2.114607   -1.499019    0.172005    0.122177   -0.200217    0.019311
H    -1.639541    1.116868   -0.146965    0.602756   -0.257870    0.041722
H     2.500125    0.915727   -0.016806    0.434831   -0.339152    0.039651
11
* Frequency(8)  391.9770
C     1.460259    0.543412   -0.014503    0.319953   -0.100811    0.017092
C     1.212004   -0.857229    0.094386    0.132520   -0.189253    0.019084
N     0.047058   -1.554422    0.120494    0.106831   -0.282133    0.026196
C    -1.060717   -0.711793    0.020547    0.239826    0.051731    0.002772
N    -0.805361    0.579725   -0.079857    0.567753   -0.295678    0.039983
C     0.252327    1.377236   -0.116181    0.167979   -0.139849    0.016604
O    -2.330145   -0.867553   -0.001102   -0.161589    1.021923   -0.089399
O    -0.210662    2.595672   -0.230203   -1.147913   -0.181911   -0.016589
H     2.111151   -1.493356    0.171459    0.122177   -0.200217    0.019311
H    -1.656590    1.124162   -0.148146    0.602756   -0.257870    0.041722
H     2.487826    0.925319   -0.017927    0.434831   -0.339152    0.039651
11
* Frequency(8)  391.9770
C     1.440097    0.549765   -0.015580    0.319953   -0.100811    0.017092
C     1.203653   -0.845303    0.093183    0.132520   -0.189253    0.019084
N     0.040325   -1.536643    0.118843    0.106831   -0.282133    0.026196
C    -1.075830   -0.715053    0.020373    0.239826    0.051731    0.002772
N    -0.841139    0.598358   -0.082377    0.567753   -0.295678    0.039983
C     0.241742    1.386049   -0.117227    0.167979   -0.139849    0.016604
O    -2.319962   -0.931952    0.004531   -0.161589    1.021923   -0.089399
O    -0.138324    2.607135   -0.229157   -1.147913   -0.181911   -0.016589
H     2.103452   -1.480738    0.170242    0.122177   -0.200217    0.019311
H    -1.694574    1.140412   -0.150775    0.602756   -0.257870    0.041722
H     2.460425    0.946692   -0.020426    0.434831   -0.339152    0.039651
11
* Frequency(8)  391.9770
C     1.411006    0.558931   -0.017134    0.319953   -0.100811    0.017092
C     1.191604   -0.828095    0.091448    0.132520   -0.189253    0.019084
N     0.030612   -1.510991    0.116462    0.106831   -0.282133    0.026196
C    -1.097635   -0.719757    0.020121    0.239826    0.051731    0.002772
N    -0.892760    0.625242   -0.086012    0.567753   -0.295678    0.039983
C     0.226469    1.398764   -0.118737    0.167979   -0.139849    0.016604
O    -2.305270   -1.024867    0.012660   -0.161589    1.021923   -0.089399
O    -0.033954    2.623675   -0.227649   -1.147913   -0.181911   -0.016589
H     2.092343   -1.462534    0.168486    0.122177   -0.200217    0.019311
H    -1.749377    1.163858   -0.154568    0.602756   -0.257870    0.041722
H     2.420889    0.977528   -0.024031    0.434831   -0.339152    0.039651
11
* Frequency(8)  391.9770
C     1.376140    0.569917   -0.018997    0.319953   -0.100811    0.017092
C     1.177163   -0.807472    0.089369    0.132520   -0.189253    0.019084
N     0.018970   -1.480246    0.113607    0.106831   -0.282133    0.026196
C    -1.123770   -0.725394    0.019818    0.239826    0.051731    0.002772
N    -0.954630    0.657463   -0.090369    0.567753   -0.295678    0.039983
C     0.208164    1.414004   -0.120546    0.167979   -0.139849    0.016604
O    -2.287661   -1.136229    0.022402   -0.161589    1.021923   -0.089399
O     0.091138    2.643498   -0.225841   -1.147913   -0.181911   -0.016589
H     2.079029   -1.440716    0.166382    0.122177   -0.200217    0.019311
H    -1.815062    1.191959   -0.159115    0.602756   -0.257870    0.041722
H     2.373504    1.014487   -0.028352    0.434831   -0.339152    0.039651
11
* Frequency(8)  391.9770
C     1.339276    0.581532   -0.020966    0.319953   -0.100811    0.017092
C     1.161895   -0.785667    0.087170    0.132520   -0.189253    0.019084
N     0.006662   -1.447739    0.110589    0.106831   -0.282133    0.026196
C    -1.151402   -0.731354    0.019499    0.239826    0.051731    0.002772
N    -1.020045    0.691530   -0.094976    0.567753   -0.295678    0.039983
C     0.188810    1.430117   -0.122459    0.167979   -0.139849    0.016604
O    -2.269044   -1.253971    0.032702   -0.161589    1.021923   -0.089399
O     0.223397    2.664458   -0.223930   -1.147913   -0.181911   -0.016589
H     2.064952   -1.417648    0.164157    0.122177   -0.200217    0.019311
H    -1.884509    1.221670   -0.163922    0.602756   -0.257870    0.041722
H     2.323404    1.053562   -0.032920    0.434831   -0.339152    0.039651
11
* Frequency(8)  391.9770
C     1.304409    0.592518   -0.022829    0.319953   -0.100811    0.017092
C     1.147453   -0.765043    0.085090    0.132520   -0.189253    0.019084
N    -0.004980   -1.416994    0.107734    0.106831   -0.282133    0.026196
C    -1.177537   -0.736992    0.019197    0.239826    0.051731    0.002772
N    -1.081915    0.723751   -0.099333    0.567753   -0.295678    0.039983
C     0.170504    1.445357   -0.124269    0.167979   -0.139849    0.016604
O    -2.251435   -1.365334    0.042444   -0.161589    1.021923   -0.089399
O     0.348489    2.684281   -0.222122   -1.147913   -0.181911   -0.016589
H     2.051638   -1.395829    0.162053    0.122177   -0.200217    0.019311
H    -1.950194    1.249771   -0.168469    0.602756   -0.257870    0.041722
H     2.276019    1.090521   -0.037241    0.434831   -0.339152    0.039651
11
* Frequency(8)  391.9770
C     1.275319    0.601683   -0.024383    0.319953   -0.100811    0.017092
C     1.135404   -0.747836    0.083355    0.132520   -0.189253    0.019084
N    -0.014693   -1.391342    0.105352    0.106831   -0.282133    0.026196
C    -1.199342   -0.741695    0.018945    0.239826    0.051731    0.002772
N    -1.133536    0.750634   -0.102969    0.567753   -0.295678    0.039983
C     0.155231    1.458072   -0.125778    0.167979   -0.139849    0.016604
O    -2.236743   -1.458249    0.050572   -0.161589    1.021923   -0.089399
O     0.452859    2.700821   -0.220614   -1.147913   -0.181911   -0.016589
H     2.040529   -1.377625    0.160297    0.122177   -0.200217    0.019311
H    -2.004997    1.273217   -0.172262    0.602756   -0.257870    0.041722
H     2.236483    1.121357   -0.040846    0.434831   -0.339152    0.039651
11
* Frequency(8)  391.9770
C     1.255156    0.608036   -0.025460    0.319953   -0.100811    0.017092
C     1.127053   -0.735910    0.082152    0.132520   -0.189253    0.019084
N    -0.021426   -1.373563    0.103702    0.106831   -0.282133    0.026196
C    -1.214455   -0.744955    0.018770    0.239826    0.051731    0.002772
N    -1.169314    0.769267   -0.105488    0.567753   -0.295678    0.039983
C     0.144646    1.466885   -0.126825    0.167979   -0.139849    0.016604
O    -2.226560   -1.522648    0.056206   -0.161589    1.021923   -0.089399
O     0.525198    2.712284   -0.219568   -1.147913   -0.181911   -0.016589
H     2.032830   -1.365008    0.159080    0.122177   -0.200217    0.019311
H    -2.042981    1.289467   -0.174891    0.602756   -0.257870    0.041722
H     2.209082    1.142730   -0.043345    0.434831   -0.339152    0.039651
11
* Frequency(8)  391.9770
C     1.246107    0.610888   -0.025944    0.319953   -0.100811    0.017092
C     1.123305   -0.730557    0.081612    0.132520   -0.189253    0.019084
N    -0.024447   -1.365583    0.102961    0.106831   -0.282133    0.026196
C    -1.221238   -0.746418    0.018692    0.239826    0.051731    0.002772
N    -1.185372    0.777630   -0.106619    0.567753   -0.295678    0.039983
C     0.139895    1.470840   -0.127294    0.167979   -0.139849    0.016604
O    -2.221989   -1.551552    0.058735   -0.161589    1.021923   -0.089399
O     0.557665    2.717429   -0.219099   -1.147913   -0.181911   -0.016589
H     2.029374   -1.359345    0.158534    0.122177   -0.200217    0.019311
H    -2.060030    1.296761   -0.176071    0.602756   -0.257870    0.041722
H     2.196783    1.152322   -0.044466    0.434831   -0.339152    0.039651
11
* Frequency(8)  391.9770
C     1.249151    0.609928   -0.025781    0.319953   -0.100811    0.017092
C     1.124566   -0.732358    0.081794    0.132520   -0.189253    0.019084
N    -0.023431   -1.368267    0.103210    0.106831   -0.282133    0.026196
C    -1.218956   -0.745926    0.018718    0.239826    0.051731    0.002772
N    -1.179970    0.774817   -0.106239    0.567753   -0.295678    0.039983
C     0.141493    1.469510   -0.127136    0.167979   -0.139849    0.016604
O    -2.223527   -1.541829    0.057884   -0.161589    1.021923   -0.089399
O     0.546743    2.715698   -0.219257   -1.147913   -0.181911   -0.016589
H     2.030537   -1.361250    0.158718    0.122177   -0.200217    0.019311
H    -2.054295    1.294307   -0.175674    0.602756   -0.257870    0.041722
H     2.200920    1.149096   -0.044089    0.434831   -0.339152    0.039651
11
* Frequency(8)  391.9770
C     1.263959    0.605263   -0.024990    0.319953   -0.100811    0.017092
C     1.130699   -0.741117    0.082677    0.132520   -0.189253    0.019084
N    -0.018486   -1.381325    0.104422    0.106831   -0.282133    0.026196
C    -1.207857   -0.743532    0.018847    0.239826    0.051731    0.002772
N    -1.153694    0.761132   -0.104388    0.567753   -0.295678    0.039983
C     0.149267    1.463037   -0.126368    0.167979   -0.139849    0.016604
O    -2.231005   -1.494532    0.053747   -0.161589    1.021923   -0.089399
O     0.493616    2.707279   -0.220025   -1.147913   -0.181911   -0.016589
H     2.036191   -1.370517    0.159611    0.122177   -0.200217    0.019311
H    -2.026398    1.282373   -0.173743    0.602756   -0.257870    0.041722
H     2.221045    1.133399   -0.042254    0.434831   -0.339152    0.039651
11
* Frequency(8)  391.9770
C     1.288926    0.597396   -0.023656    0.319953   -0.100811    0.017092
C     1.141040   -0.755885    0.084167    0.132520   -0.189253    0.019084
N    -0.010150   -1.403341    0.106466    0.106831   -0.282133    0.026196
C    -1.189142   -0.739495    0.019063    0.239826    0.051731    0.002772
N    -1.109390    0.738059   -0.101268    0.567753   -0.295678    0.039983
C     0.162375    1.452124   -0.125072    0.167979   -0.139849    0.016604
O    -2.243615   -1.414788    0.046770   -0.161589    1.021923   -0.089399
O     0.404040    2.693084   -0.221319   -1.147913   -0.181911   -0.016589
H     2.045725   -1.386140    0.161118    0.122177   -0.200217    0.019311
H    -1.979363    1.262250   -0.170488    0.602756   -0.257870    0.041722
H     2.254976    1.106934   -0.039160    0.434831   -0.339152    0.039651
11
* Frequency(8)  391.9770
C     1.321347    0.587181   -0.021924    0.319953   -0.100811    0.017092
C     1.154469   -0.775062    0.086100    0.132520   -0.189253    0.019084
N     0.000675   -1.431929    0.109121    0.106831   -0.282133    0.026196
C    -1.164841   -0.734253    0.019344    0.239826    0.051731    0.002772
N    -1.051860    0.708098   -0.097217    0.567753   -0.295678    0.039983
C     0.179397    1.437953   -0.123390    0.167979   -0.139849    0.016604
O    -2.259989   -1.311236    0.037712   -0.161589    1.021923   -0.089399
O     0.287722    2.674651   -0.223000   -1.147913   -0.181911   -0.016589
H     2.058106   -1.406428    0.163075    0.122177   -0.200217    0.019311
H    -1.918286    1.236120   -0.166260    0.602756   -0.257870    0.041722
H     2.299038    1.072567   -0.035142    0.434831   -0.339152    0.039651
11
* Frequency(8)  391.9770
C     1.357708    0.575724   -0.019982    0.319953   -0.100811    0.017092
C     1.169529   -0.796569    0.088269    0.132520   -0.189253    0.019084
N     0.012816   -1.463992    0.112098    0.106831   -0.282133    0.026196
C    -1.137586   -0.728374    0.019659    0.239826    0.051731    0.002772
N    -0.987337    0.674496   -0.092673    0.567753   -0.295678    0.039983
C     0.198487    1.422060   -0.121503    0.167979   -0.139849    0.016604
O    -2.278352   -1.195100    0.027552   -0.161589    1.021923   -0.089399
O     0.157268    2.653978   -0.224886   -1.147913   -0.181911   -0.016589
H     2.071990   -1.429182    0.165269    0.122177   -0.200217    0.019311
H    -1.849786    1.206815   -0.161518    0.602756   -0.257870    0.041722
H     2.348454    1.034025   -0.030636    0.434831   -0.339152    0.039651
