11
* (null), Energy   -1000.0000000
C     1.591454    0.406609    0.009810    0.105313   -0.199040    0.019354
C     1.402862   -0.965542    0.118363   -0.049732   -0.027117    0.000957
N     0.246024   -1.632751    0.142050   -0.163113    0.070365   -0.010296
C    -0.904486   -0.897558    0.049520    0.006588   -0.144639    0.012142
N    -0.754011    0.505509   -0.063362   -0.180761   -0.177370    0.009751
C     0.431975    1.252895   -0.092416    0.097601   -0.048947    0.006705
O    -2.045071   -1.364389    0.057523    0.126211    0.086120   -0.003741
O     0.390516    2.484935   -0.194533   -0.009829    0.149092   -0.012514
H     2.305441   -1.598210    0.195810    0.874296    1.262226   -0.081341
H    -1.616489    1.037825   -0.130328    0.436870    0.829286   -0.056948
H     2.582079    0.864994   -0.000426   -0.283721    0.663645   -0.062732
11
* Frequency(25) 1382.6749
C     1.603423    0.383989    0.012010    0.105313   -0.199040    0.019354
C     1.397210   -0.968623    0.118472   -0.049732   -0.027117    0.000957
N     0.227487   -1.624754    0.140880   -0.163113    0.070365   -0.010296
C    -0.903738   -0.913996    0.050899    0.006588   -0.144639    0.012142
N    -0.774554    0.485352   -0.062254   -0.180761   -0.177370    0.009751
C     0.443067    1.247333   -0.091654    0.097601   -0.048947    0.006705
O    -2.030728   -1.354602    0.057098    0.126211    0.086120   -0.003741
O     0.389399    2.501878   -0.195955   -0.009829    0.149092   -0.012514
H     2.404800   -1.454765    0.186566    0.874296    1.262226   -0.081341
H    -1.566841    1.132069   -0.136800    0.436870    0.829286   -0.056948
H     2.549836    0.940413   -0.007555   -0.283721    0.663645   -0.062732
11
* Frequency(25) 1382.6749
C     1.614094    0.363821    0.013971    0.105313   -0.199040    0.019354
C     1.392171   -0.971371    0.118569   -0.049732   -0.027117    0.000957
N     0.210959   -1.617624    0.139836   -0.163113    0.070365   -0.010296
C    -0.903070   -0.928652    0.052130    0.006588   -0.144639    0.012142
N    -0.792870    0.467379   -0.061265   -0.180761   -0.177370    0.009751
C     0.452957    1.242373   -0.090975    0.097601   -0.048947    0.006705
O    -2.017939   -1.345875    0.056719    0.126211    0.086120   -0.003741
O     0.388403    2.516986   -0.197223   -0.009829    0.149092   -0.012514
H     2.493392   -1.326864    0.178324    0.874296    1.262226   -0.081341
H    -1.522573    1.216100   -0.142570    0.436870    0.829286   -0.056948
H     2.521087    1.007660   -0.013912   -0.283721    0.663645   -0.062732
11
* Frequency(25) 1382.6749
C     1.622312    0.348289    0.015481    0.105313   -0.199040    0.019354
C     1.388290   -0.973487    0.118644   -0.049732   -0.027117    0.000957
N     0.198230   -1.612133    0.139033   -0.163113    0.070365   -0.010296
C    -0.902556   -0.939939    0.053077    0.006588   -0.144639    0.012142
N    -0.806976    0.453538   -0.060505   -0.180761   -0.177370    0.009751
C     0.460573    1.238553   -0.090452    0.097601   -0.048947    0.006705
O    -2.008090   -1.339155    0.056427    0.126211    0.086120   -0.003741
O     0.387636    2.528620   -0.198200   -0.009829    0.149092   -0.012514
H     2.561617   -1.228367    0.171977    0.874296    1.262226   -0.081341
H    -1.488482    1.280812   -0.147014    0.436870    0.829286   -0.056948
H     2.498947    1.059447   -0.018807   -0.283721    0.663645   -0.062732
11
* Frequency(25) 1382.6749
C     1.627186    0.339077    0.016377    0.105313   -0.199040    0.019354
C     1.385988   -0.974742    0.118688   -0.049732   -0.027117    0.000957
N     0.190681   -1.608876    0.138556   -0.163113    0.070365   -0.010296
C    -0.902251   -0.946633    0.053639    0.006588   -0.144639    0.012142
N    -0.815342    0.445329   -0.060053   -0.180761   -0.177370    0.009751
C     0.465090    1.236288   -0.090141    0.097601   -0.048947    0.006705
O    -2.002249   -1.335169    0.056254    0.126211    0.086120   -0.003741
O     0.387181    2.535520   -0.198779   -0.009829    0.149092   -0.012514
H     2.602081   -1.169949    0.168212    0.874296    1.262226   -0.081341
H    -1.468263    1.319193   -0.149650    0.436870    0.829286   -0.056948
H     2.485816    1.090162   -0.021710   -0.283721    0.663645   -0.062732
11
* Frequency(25) 1382.6749
C     1.628188    0.337183    0.016561    0.105313   -0.199040    0.019354
C     1.385515   -0.975000    0.118697   -0.049732   -0.027117    0.000957
N     0.189129   -1.608207    0.138458   -0.163113    0.070365   -0.010296
C    -0.902189   -0.948009    0.053755    0.006588   -0.144639    0.012142
N    -0.817061    0.443642   -0.059960   -0.180761   -0.177370    0.009751
C     0.466019    1.235822   -0.090077    0.097601   -0.048947    0.006705
O    -2.001048   -1.334350    0.056218    0.126211    0.086120   -0.003741
O     0.387088    2.536939   -0.198898   -0.009829    0.149092   -0.012514
H     2.610400   -1.157940    0.167438    0.874296    1.262226   -0.081341
H    -1.464107    1.327084   -0.150192    0.436870    0.829286   -0.056948
H     2.483116    1.096476   -0.022307   -0.283721    0.663645   -0.062732
11
* Frequency(25) 1382.6749
C     1.625209    0.342813    0.016014    0.105313   -0.199040    0.019354
C     1.386922   -0.974233    0.118670   -0.049732   -0.027117    0.000957
N     0.193743   -1.610197    0.138750   -0.163113    0.070365   -0.010296
C    -0.902375   -0.943918    0.053411    0.006588   -0.144639    0.012142
N    -0.811949    0.448658   -0.060236   -0.180761   -0.177370    0.009751
C     0.463258    1.237207   -0.090267    0.097601   -0.048947    0.006705
O    -2.004618   -1.336786    0.056324    0.126211    0.086120   -0.003741
O     0.387366    2.532722   -0.198544   -0.009829    0.149092   -0.012514
H     2.585671   -1.193640    0.169739    0.874296    1.262226   -0.081341
H    -1.476463    1.303628   -0.148581    0.436870    0.829286   -0.056948
H     2.491141    1.077705   -0.020533   -0.283721    0.663645   -0.062732
11
* Frequency(25) 1382.6749
C     1.618573    0.355356    0.014794    0.105313   -0.199040    0.019354
C     1.390056   -0.972525    0.118610   -0.049732   -0.027117    0.000957
N     0.204022   -1.614631    0.139398   -0.163113    0.070365   -0.010296
C    -0.902790   -0.934803    0.052646    0.006588   -0.144639    0.012142
N    -0.800558    0.459836   -0.060851   -0.180761   -0.177370    0.009751
C     0.457108    1.240291   -0.090690    0.097601   -0.048947    0.006705
O    -2.012571   -1.342213    0.056560    0.126211    0.086120   -0.003741
O     0.387985    2.523327   -0.197755   -0.009829    0.149092   -0.012514
H     2.530575   -1.273183    0.174865    0.874296    1.262226   -0.081341
H    -1.503993    1.251369   -0.144992    0.436870    0.829286   -0.056948
H     2.509020    1.035884   -0.016580   -0.283721    0.663645   -0.062732
11
* Frequency(25) 1382.6749
C     1.608998    0.373453    0.013035    0.105313   -0.199040    0.019354
C     1.394577   -0.970059    0.118523   -0.049732   -0.027117    0.000957
N     0.218852   -1.621029    0.140335   -0.163113    0.070365   -0.010296
C    -0.903389   -0.921653    0.051542    0.006588   -0.144639    0.012142
N    -0.784123    0.475963   -0.061737   -0.180761   -0.177370    0.009751
C     0.448234    1.244742   -0.091299    0.097601   -0.048947    0.006705
O    -2.024046   -1.350043    0.056900    0.126211    0.086120   -0.003741
O     0.388879    2.509771   -0.196618   -0.009829    0.149092   -0.012514
H     2.451083   -1.387946    0.182260    0.874296    1.262226   -0.081341
H    -1.543714    1.175969   -0.139814    0.436870    0.829286   -0.056948
H     2.534817    0.975545   -0.010876   -0.283721    0.663645   -0.062732
11
* Frequency(25) 1382.6749
C     1.597521    0.395143    0.010925    0.105313   -0.199040    0.019354
C     1.399997   -0.967104    0.118418   -0.049732   -0.027117    0.000957
N     0.236627   -1.628697    0.141457   -0.163113    0.070365   -0.010296
C    -0.904107   -0.905891    0.050219    0.006588   -0.144639    0.012142
N    -0.764424    0.495291   -0.062800   -0.180761   -0.177370    0.009751
C     0.437598    1.250075   -0.092030    0.097601   -0.048947    0.006705
O    -2.037800   -1.359428    0.057307    0.126211    0.086120   -0.003741
O     0.389950    2.493524   -0.195254   -0.009829    0.149092   -0.012514
H     2.355808   -1.525496    0.191124    0.874296    1.262226   -0.081341
H    -1.591322    1.085598   -0.133608    0.436870    0.829286   -0.056948
H     2.565735    0.903225   -0.004040   -0.283721    0.663645   -0.062732
11
* Frequency(25) 1382.6749
C     1.585387    0.418076    0.008696    0.105313   -0.199040    0.019354
C     1.405727   -0.963980    0.118308   -0.049732   -0.027117    0.000957
N     0.255420   -1.636804    0.142643   -0.163113    0.070365   -0.010296
C    -0.904866   -0.889226    0.048820    0.006588   -0.144639    0.012142
N    -0.743598    0.515727   -0.063924   -0.180761   -0.177370    0.009751
C     0.426353    1.255715   -0.092802    0.097601   -0.048947    0.006705
O    -2.052342   -1.369350    0.057738    0.126211    0.086120   -0.003741
O     0.391082    2.476346   -0.193812   -0.009829    0.149092   -0.012514
H     2.255074   -1.670924    0.200496    0.874296    1.262226   -0.081341
H    -1.641656    0.990051   -0.127047    0.436870    0.829286   -0.056948
H     2.598424    0.826762    0.003188   -0.283721    0.663645   -0.062732
11
* Frequency(25) 1382.6749
C     1.573911    0.439766    0.006586    0.105313   -0.199040    0.019354
C     1.411146   -0.961025    0.118204   -0.049732   -0.027117    0.000957
N     0.273195   -1.644472    0.143765   -0.163113    0.070365   -0.010296
C    -0.905584   -0.873464    0.047497    0.006588   -0.144639    0.012142
N    -0.723900    0.535056   -0.064986   -0.180761   -0.177370    0.009751
C     0.415717    1.261049   -0.093533    0.097601   -0.048947    0.006705
O    -2.066095   -1.378735    0.058146    0.126211    0.086120   -0.003741
O     0.392153    2.460099   -0.192449   -0.009829    0.149092   -0.012514
H     2.159799   -1.808474    0.209360    0.874296    1.262226   -0.081341
H    -1.689263    0.899681   -0.120841    0.436870    0.829286   -0.056948
H     2.629342    0.754443    0.010024   -0.283721    0.663645   -0.062732
11
* Frequency(25) 1382.6749
C     1.564336    0.457863    0.004827    0.105313   -0.199040    0.019354
C     1.415668   -0.958559    0.118117   -0.049732   -0.027117    0.000957
N     0.288026   -1.650870    0.144701   -0.163113    0.070365   -0.010296
C    -0.906183   -0.860313    0.046393    0.006588   -0.144639    0.012142
N    -0.707465    0.551183   -0.065873   -0.180761   -0.177370    0.009751
C     0.406843    1.265499   -0.094142    0.097601   -0.048947    0.006705
O    -2.077570   -1.386565    0.058486    0.126211    0.086120   -0.003741
O     0.393047    2.446543   -0.191311   -0.009829    0.149092   -0.012514
H     2.080307   -1.923237    0.216755    0.874296    1.262226   -0.081341
H    -1.728984    0.824281   -0.115663    0.436870    0.829286   -0.056948
H     2.655138    0.694103    0.015728   -0.283721    0.663645   -0.062732
11
* Frequency(25) 1382.6749
C     1.557699    0.470406    0.003607    0.105313   -0.199040    0.019354
C     1.418802   -0.956850    0.118057   -0.049732   -0.027117    0.000957
N     0.298305   -1.655304    0.145350   -0.163113    0.070365   -0.010296
C    -0.906598   -0.851198    0.045628    0.006588   -0.144639    0.012142
N    -0.696074    0.562360   -0.066487   -0.180761   -0.177370    0.009751
C     0.400692    1.268584   -0.094565    0.097601   -0.048947    0.006705
O    -2.085524   -1.391992    0.058722    0.126211    0.086120   -0.003741
O     0.393667    2.437148   -0.190522   -0.009829    0.149092   -0.012514
H     2.025211   -2.002780    0.221881    0.874296    1.262226   -0.081341
H    -1.756515    0.772022   -0.112075    0.436870    0.829286   -0.056948
H     2.673018    0.652282    0.019681   -0.283721    0.663645   -0.062732
11
* Frequency(25) 1382.6749
C     1.554721    0.476035    0.003060    0.105313   -0.199040    0.019354
C     1.420209   -0.956083    0.118029   -0.049732   -0.027117    0.000957
N     0.302918   -1.657294    0.145641   -0.163113    0.070365   -0.010296
C    -0.906784   -0.847107    0.045285    0.006588   -0.144639    0.012142
N    -0.690961    0.567377   -0.066763   -0.180761   -0.177370    0.009751
C     0.397931    1.269968   -0.094755    0.097601   -0.048947    0.006705
O    -2.089094   -1.394428    0.058828    0.126211    0.086120   -0.003741
O     0.393945    2.432931   -0.190168   -0.009829    0.149092   -0.012514
H     2.000482   -2.038480    0.224182    0.874296    1.262226   -0.081341
H    -1.768871    0.748566   -0.110464    0.436870    0.829286   -0.056948
H     2.681042    0.633511    0.021455   -0.283721    0.663645   -0.062732
11
* Frequency(25) 1382.6749
C     1.555723    0.474142    0.003244    0.105313   -0.199040    0.019354
C     1.419736   -0.956341    0.118039   -0.049732   -0.027117    0.000957
N     0.301366   -1.656625    0.145543   -0.163113    0.070365   -0.010296
C    -0.906722   -0.848484    0.045400    0.006588   -0.144639    0.012142
N    -0.692681    0.565689   -0.066670   -0.180761   -0.177370    0.009751
C     0.398860    1.269503   -0.094691    0.097601   -0.048947    0.006705
O    -2.087893   -1.393609    0.058792    0.126211    0.086120   -0.003741
O     0.393851    2.434349   -0.190287   -0.009829    0.149092   -0.012514
H     2.008801   -2.026471    0.223408    0.874296    1.262226   -0.081341
H    -1.764715    0.756456   -0.111006    0.436870    0.829286   -0.056948
H     2.678343    0.639826    0.020858   -0.283721    0.663645   -0.062732
11
* Frequency(25) 1382.6749
C     1.560597    0.464930    0.004140    0.105313   -0.199040    0.019354
C     1.417434   -0.957596    0.118083   -0.049732   -0.027117    0.000957
N     0.293817   -1.653368    0.145066   -0.163113    0.070365   -0.010296
C    -0.906417   -0.855178    0.045962    0.006588   -0.144639    0.012142
N    -0.701047    0.557480   -0.066219   -0.180761   -0.177370    0.009751
C     0.403377    1.267237   -0.094380    0.097601   -0.048947    0.006705
O    -2.082052   -1.389623    0.058619    0.126211    0.086120   -0.003741
O     0.393396    2.441249   -0.190866   -0.009829    0.149092   -0.012514
H     2.049265   -1.968053    0.219643    0.874296    1.262226   -0.081341
H    -1.744495    0.794837   -0.113641    0.436870    0.829286   -0.056948
H     2.665212    0.670540    0.017955   -0.283721    0.663645   -0.062732
11
* Frequency(25) 1382.6749
C     1.568815    0.449398    0.005650    0.105313   -0.199040    0.019354
C     1.413553   -0.959712    0.118158   -0.049732   -0.027117    0.000957
N     0.281089   -1.647877    0.144263   -0.163113    0.070365   -0.010296
C    -0.905903   -0.866465    0.046909    0.006588   -0.144639    0.012142
N    -0.715152    0.543639   -0.065458   -0.180761   -0.177370    0.009751
C     0.410993    1.263418   -0.093857    0.097601   -0.048947    0.006705
O    -2.072203   -1.382903    0.058327    0.126211    0.086120   -0.003741
O     0.392629    2.452884   -0.191843   -0.009829    0.149092   -0.012514
H     2.117490   -1.869556    0.213296    0.874296    1.262226   -0.081341
H    -1.710405    0.859550   -0.118085    0.436870    0.829286   -0.056948
H     2.643072    0.722327    0.013060   -0.283721    0.663645   -0.062732
11
* Frequency(25) 1382.6749
C     1.579486    0.429229    0.007611    0.105313   -0.199040    0.019354
C     1.408514   -0.962460    0.118255   -0.049732   -0.027117    0.000957
N     0.264561   -1.640747    0.143220   -0.163113    0.070365   -0.010296
C    -0.905235   -0.881121    0.048140    0.006588   -0.144639    0.012142
N    -0.733469    0.525666   -0.064470   -0.180761   -0.177370    0.009751
C     0.420883    1.258458   -0.093178    0.097601   -0.048947    0.006705
O    -2.059414   -1.374176    0.057948    0.126211    0.086120   -0.003741
O     0.391633    2.467991   -0.193111   -0.009829    0.149092   -0.012514
H     2.206082   -1.741655    0.205054    0.874296    1.262226   -0.081341
H    -1.666137    0.943581   -0.123856    0.436870    0.829286   -0.056948
H     2.614323    0.789574    0.006703   -0.283721    0.663645   -0.062732
11
* Frequency(25) 1382.6749
C     1.591454    0.406609    0.009810    0.105313   -0.199040    0.019354
C     1.402862   -0.965542    0.118363   -0.049732   -0.027117    0.000957
N     0.246024   -1.632751    0.142050   -0.163113    0.070365   -0.010296
C    -0.904486   -0.897558    0.049520    0.006588   -0.144639    0.012142
N    -0.754011    0.505509   -0.063362   -0.180761   -0.177370    0.009751
C     0.431975    1.252895   -0.092416    0.097601   -0.048947    0.006705
O    -2.045071   -1.364389    0.057523    0.126211    0.086120   -0.003741
O     0.390516    2.484935   -0.194533   -0.009829    0.149092   -0.012514
H     2.305441   -1.598210    0.195810    0.874296    1.262226   -0.081341
H    -1.616489    1.037825   -0.130328    0.436870    0.829286   -0.056948
H     2.582079    0.864994   -0.000426   -0.283721    0.663645   -0.062732
