11
* (null), Energy   -1000.0000000
C     1.357708    0.575724   -0.019982   -0.158349   -0.074246    0.001783
C     1.169529   -0.796569    0.088269   -0.008697    0.016050   -0.001567
N     0.012816   -1.463992    0.112098    0.001176   -0.000093    0.000038
C    -1.137586   -0.728374    0.019659    0.000766    0.000793   -0.000044
N    -0.987337    0.674496   -0.092673    0.000690    0.000751   -0.000042
C     0.198487    1.422060   -0.121503    0.004852   -0.007847    0.000779
O    -2.278352   -1.195100    0.027552   -0.000187   -0.000134    0.000008
O     0.157268    2.653978   -0.224886   -0.000439    0.001914   -0.000172
H     2.071990   -1.429182    0.165269    0.102295   -0.085897    0.009912
H    -1.849786    1.206815   -0.161518   -0.002075   -0.001220    0.000043
H     2.348454    1.034025   -0.030636    1.807313    0.827229   -0.018634
11
* Frequency(31) 3192.8381
C     1.339712    0.567287   -0.019779   -0.158349   -0.074246    0.001783
C     1.168540   -0.794745    0.088091   -0.008697    0.016050   -0.001567
N     0.012950   -1.464003    0.112102    0.001176   -0.000093    0.000038
C    -1.137499   -0.728284    0.019654    0.000766    0.000793   -0.000044
N    -0.987259    0.674581   -0.092678    0.000690    0.000751   -0.000042
C     0.199038    1.421169   -0.121414    0.004852   -0.007847    0.000779
O    -2.278374   -1.195115    0.027553   -0.000187   -0.000134    0.000008
O     0.157218    2.654195   -0.224905   -0.000439    0.001914   -0.000172
H     2.083616   -1.438944    0.166396    0.102295   -0.085897    0.009912
H    -1.850021    1.206676   -0.161513   -0.002075   -0.001220    0.000043
H     2.553846    1.128035   -0.032754    1.807313    0.827229   -0.018634
11
* Frequency(31) 3192.8381
C     1.323667    0.559763   -0.019598   -0.158349   -0.074246    0.001783
C     1.167659   -0.793119    0.087932   -0.008697    0.016050   -0.001567
N     0.013069   -1.464012    0.112106    0.001176   -0.000093    0.000038
C    -1.137421   -0.728204    0.019649    0.000766    0.000793   -0.000044
N    -0.987189    0.674658   -0.092682    0.000690    0.000751   -0.000042
C     0.199530    1.420374   -0.121335    0.004852   -0.007847    0.000779
O    -2.278393   -1.195129    0.027554   -0.000187   -0.000134    0.000008
O     0.157173    2.654389   -0.224922   -0.000439    0.001914   -0.000172
H     2.093981   -1.447648    0.167400    0.102295   -0.085897    0.009912
H    -1.850232    1.206552   -0.161509   -0.002075   -0.001220    0.000043
H     2.736980    1.211858   -0.034642    1.807313    0.827229   -0.018634
11
* Frequency(31) 3192.8381
C     1.311310    0.553970   -0.019459   -0.158349   -0.074246    0.001783
C     1.166980   -0.791867    0.087810   -0.008697    0.016050   -0.001567
N     0.013161   -1.464020    0.112109    0.001176   -0.000093    0.000038
C    -1.137362   -0.728142    0.019646    0.000766    0.000793   -0.000044
N    -0.987135    0.674716   -0.092685    0.000690    0.000751   -0.000042
C     0.199908    1.419761   -0.121274    0.004852   -0.007847    0.000779
O    -2.278407   -1.195140    0.027554   -0.000187   -0.000134    0.000008
O     0.157139    2.654539   -0.224936   -0.000439    0.001914   -0.000172
H     2.101964   -1.454350    0.168174    0.102295   -0.085897    0.009912
H    -1.850394    1.206457   -0.161506   -0.002075   -0.001220    0.000043
H     2.878012    1.276409   -0.036096    1.807313    0.827229   -0.018634
11
* Frequency(31) 3192.8381
C     1.303981    0.550533   -0.019377   -0.158349   -0.074246    0.001783
C     1.166578   -0.791124    0.087737   -0.008697    0.016050   -0.001567
N     0.013215   -1.464024    0.112111    0.001176   -0.000093    0.000038
C    -1.137326   -0.728105    0.019644    0.000766    0.000793   -0.000044
N    -0.987103    0.674751   -0.092687    0.000690    0.000751   -0.000042
C     0.200133    1.419398   -0.121238    0.004852   -0.007847    0.000779
O    -2.278416   -1.195146    0.027555   -0.000187   -0.000134    0.000008
O     0.157119    2.654627   -0.224944   -0.000439    0.001914   -0.000172
H     2.106698   -1.458326    0.168633    0.102295   -0.085897    0.009912
H    -1.850490    1.206400   -0.161504   -0.002075   -0.001220    0.000043
H     2.961657    1.314695   -0.036958    1.807313    0.827229   -0.018634
11
* Frequency(31) 3192.8381
C     1.302475    0.549827   -0.019360   -0.158349   -0.074246    0.001783
C     1.166495   -0.790971    0.087722   -0.008697    0.016050   -0.001567
N     0.013226   -1.464025    0.112111    0.001176   -0.000093    0.000038
C    -1.137319   -0.728097    0.019644    0.000766    0.000793   -0.000044
N    -0.987097    0.674758   -0.092688    0.000690    0.000751   -0.000042
C     0.200179    1.419323   -0.121231    0.004852   -0.007847    0.000779
O    -2.278418   -1.195147    0.027555   -0.000187   -0.000134    0.000008
O     0.157114    2.654646   -0.224945   -0.000439    0.001914   -0.000172
H     2.107671   -1.459143    0.168727    0.102295   -0.085897    0.009912
H    -1.850509    1.206389   -0.161503   -0.002075   -0.001220    0.000043
H     2.978853    1.322566   -0.037136    1.807313    0.827229   -0.018634
11
* Frequency(31) 3192.8381
C     1.306954    0.551927   -0.019410   -0.158349   -0.074246    0.001783
C     1.166741   -0.791425    0.087767   -0.008697    0.016050   -0.001567
N     0.013193   -1.464022    0.112110    0.001176   -0.000093    0.000038
C    -1.137340   -0.728120    0.019645    0.000766    0.000793   -0.000044
N    -0.987116    0.674737   -0.092686    0.000690    0.000751   -0.000042
C     0.200042    1.419545   -0.121253    0.004852   -0.007847    0.000779
O    -2.278412   -1.195143    0.027554   -0.000187   -0.000134    0.000008
O     0.157127    2.654591   -0.224940   -0.000439    0.001914   -0.000172
H     2.104778   -1.456714    0.168447    0.102295   -0.085897    0.009912
H    -1.850451    1.206423   -0.161505   -0.002075   -0.001220    0.000043
H     2.927735    1.299169   -0.036609    1.807313    0.827229   -0.018634
11
* Frequency(31) 3192.8381
C     1.316932    0.556606   -0.019522   -0.158349   -0.074246    0.001783
C     1.167289   -0.792436    0.087866   -0.008697    0.016050   -0.001567
N     0.013119   -1.464016    0.112108    0.001176   -0.000093    0.000038
C    -1.137389   -0.728170    0.019648    0.000766    0.000793   -0.000044
N    -0.987160    0.674689   -0.092684    0.000690    0.000751   -0.000042
C     0.199736    1.420040   -0.121302    0.004852   -0.007847    0.000779
O    -2.278401   -1.195135    0.027554   -0.000187   -0.000134    0.000008
O     0.157154    2.654471   -0.224930   -0.000439    0.001914   -0.000172
H     2.098332   -1.451301    0.167822    0.102295   -0.085897    0.009912
H    -1.850320    1.206500   -0.161507   -0.002075   -0.001220    0.000043
H     2.813843    1.247039   -0.035434    1.807313    0.827229   -0.018634
11
* Frequency(31) 3192.8381
C     1.331330    0.563356   -0.019685   -0.158349   -0.074246    0.001783
C     1.168080   -0.793896    0.088008   -0.008697    0.016050   -0.001567
N     0.013012   -1.464008    0.112104    0.001176   -0.000093    0.000038
C    -1.137458   -0.728242    0.019651    0.000766    0.000793   -0.000044
N    -0.987222    0.674621   -0.092680    0.000690    0.000751   -0.000042
C     0.199295    1.420753   -0.121373    0.004852   -0.007847    0.000779
O    -2.278384   -1.195123    0.027553   -0.000187   -0.000134    0.000008
O     0.157194    2.654297   -0.224914   -0.000439    0.001914   -0.000172
H     2.089031   -1.443491    0.166921    0.102295   -0.085897    0.009912
H    -1.850131    1.206611   -0.161511   -0.002075   -0.001220    0.000043
H     2.649519    1.171826   -0.033740    1.807313    0.827229   -0.018634
11
* Frequency(31) 3192.8381
C     1.348586    0.571447   -0.019879   -0.158349   -0.074246    0.001783
C     1.169028   -0.795645    0.088179   -0.008697    0.016050   -0.001567
N     0.012884   -1.463998    0.112100    0.001176   -0.000093    0.000038
C    -1.137542   -0.728328    0.019656    0.000766    0.000793   -0.000044
N    -0.987298    0.674539   -0.092675    0.000690    0.000751   -0.000042
C     0.198766    1.421608   -0.121458    0.004852   -0.007847    0.000779
O    -2.278363   -1.195108    0.027552   -0.000187   -0.000134    0.000008
O     0.157242    2.654088   -0.224895   -0.000439    0.001914   -0.000172
H     2.077884   -1.434130    0.165840    0.102295   -0.085897    0.009912
H    -1.849905    1.206744   -0.161516   -0.002075   -0.001220    0.000043
H     2.452570    1.081680   -0.031710    1.807313    0.827229   -0.018634
11
* Frequency(31) 3192.8381
C     1.366830    0.580001   -0.020084   -0.158349   -0.074246    0.001783
C     1.170030   -0.797494    0.088359   -0.008697    0.016050   -0.001567
N     0.012748   -1.463987    0.112096    0.001176   -0.000093    0.000038
C    -1.137630   -0.728420    0.019661    0.000766    0.000793   -0.000044
N    -0.987377    0.674453   -0.092670    0.000690    0.000751   -0.000042
C     0.198207    1.422512   -0.121548    0.004852   -0.007847    0.000779
O    -2.278342   -1.195092    0.027551   -0.000187   -0.000134    0.000008
O     0.157293    2.653868   -0.224876   -0.000439    0.001914   -0.000172
H     2.066097   -1.424234    0.164698    0.102295   -0.085897    0.009912
H    -1.849666    1.206885   -0.161521   -0.002075   -0.001220    0.000043
H     2.244338    0.986369   -0.029563    1.807313    0.827229   -0.018634
11
* Frequency(31) 3192.8381
C     1.384086    0.588092   -0.020279   -0.158349   -0.074246    0.001783
C     1.170978   -0.799243    0.088530   -0.008697    0.016050   -0.001567
N     0.012620   -1.463977    0.112092    0.001176   -0.000093    0.000038
C    -1.137714   -0.728506    0.019666    0.000766    0.000793   -0.000044
N    -0.987452    0.674371   -0.092666    0.000690    0.000751   -0.000042
C     0.197678    1.423367   -0.121633    0.004852   -0.007847    0.000779
O    -2.278321   -1.195078    0.027551   -0.000187   -0.000134    0.000008
O     0.157341    2.653659   -0.224857   -0.000439    0.001914   -0.000172
H     2.054950   -1.414873    0.163618    0.102295   -0.085897    0.009912
H    -1.849440    1.207018   -0.161526   -0.002075   -0.001220    0.000043
H     2.047389    0.896223   -0.027532    1.807313    0.827229   -0.018634
11
* Frequency(31) 3192.8381
C     1.398483    0.594843   -0.020441   -0.158349   -0.074246    0.001783
C     1.171768   -0.800702    0.088673   -0.008697    0.016050   -0.001567
N     0.012513   -1.463968    0.112088    0.001176   -0.000093    0.000038
C    -1.137783   -0.728578    0.019670    0.000766    0.000793   -0.000044
N    -0.987515    0.674303   -0.092662    0.000690    0.000751   -0.000042
C     0.197237    1.424081   -0.121703    0.004852   -0.007847    0.000779
O    -2.278304   -1.195066    0.027550   -0.000187   -0.000134    0.000008
O     0.157381    2.653485   -0.224841   -0.000439    0.001914   -0.000172
H     2.045649   -1.407063    0.162717    0.102295   -0.085897    0.009912
H    -1.849251    1.207129   -0.161530   -0.002075   -0.001220    0.000043
H     1.883065    0.821010   -0.025838    1.807313    0.827229   -0.018634
11
* Frequency(31) 3192.8381
C     1.408462    0.599522   -0.020553   -0.158349   -0.074246    0.001783
C     1.172317   -0.801714    0.088771   -0.008697    0.016050   -0.001567
N     0.012439   -1.463962    0.112086    0.001176   -0.000093    0.000038
C    -1.137831   -0.728628    0.019673    0.000766    0.000793   -0.000044
N    -0.987559    0.674256   -0.092659    0.000690    0.000751   -0.000042
C     0.196931    1.424575   -0.121753    0.004852   -0.007847    0.000779
O    -2.278292   -1.195057    0.027549   -0.000187   -0.000134    0.000008
O     0.157408    2.653365   -0.224831   -0.000439    0.001914   -0.000172
H     2.039203   -1.401650    0.162092    0.102295   -0.085897    0.009912
H    -1.849120    1.207206   -0.161532   -0.002075   -0.001220    0.000043
H     1.769173    0.768881   -0.024663    1.807313    0.827229   -0.018634
11
* Frequency(31) 3192.8381
C     1.412941    0.601621   -0.020604   -0.158349   -0.074246    0.001783
C     1.172563   -0.802168    0.088816   -0.008697    0.016050   -0.001567
N     0.012406   -1.463960    0.112085    0.001176   -0.000093    0.000038
C    -1.137853   -0.728651    0.019674    0.000766    0.000793   -0.000044
N    -0.987578    0.674234   -0.092658    0.000690    0.000751   -0.000042
C     0.196794    1.424797   -0.121775    0.004852   -0.007847    0.000779
O    -2.278287   -1.195053    0.027549   -0.000187   -0.000134    0.000008
O     0.157421    2.653310   -0.224826   -0.000439    0.001914   -0.000172
H     2.036309   -1.399221    0.161812    0.102295   -0.085897    0.009912
H    -1.849062    1.207240   -0.161534   -0.002075   -0.001220    0.000043
H     1.718055    0.745483   -0.024136    1.807313    0.827229   -0.018634
11
* Frequency(31) 3192.8381
C     1.411434    0.600915   -0.020587   -0.158349   -0.074246    0.001783
C     1.172480   -0.802015    0.088801   -0.008697    0.016050   -0.001567
N     0.012417   -1.463961    0.112085    0.001176   -0.000093    0.000038
C    -1.137846   -0.728643    0.019674    0.000766    0.000793   -0.000044
N    -0.987572    0.674242   -0.092658    0.000690    0.000751   -0.000042
C     0.196840    1.424723   -0.121767    0.004852   -0.007847    0.000779
O    -2.278289   -1.195055    0.027549   -0.000187   -0.000134    0.000008
O     0.157417    2.653329   -0.224827   -0.000439    0.001914   -0.000172
H     2.037283   -1.400038    0.161906    0.102295   -0.085897    0.009912
H    -1.849082    1.207229   -0.161533   -0.002075   -0.001220    0.000043
H     1.735251    0.753354   -0.024314    1.807313    0.827229   -0.018634
11
* Frequency(31) 3192.8381
C     1.404105    0.597479   -0.020504   -0.158349   -0.074246    0.001783
C     1.172077   -0.801272    0.088728   -0.008697    0.016050   -0.001567
N     0.012471   -1.463965    0.112087    0.001176   -0.000093    0.000038
C    -1.137810   -0.728607    0.019672    0.000766    0.000793   -0.000044
N    -0.987540    0.674276   -0.092660    0.000690    0.000751   -0.000042
C     0.197065    1.424359   -0.121731    0.004852   -0.007847    0.000779
O    -2.278298   -1.195061    0.027550   -0.000187   -0.000134    0.000008
O     0.157396    2.653417   -0.224835   -0.000439    0.001914   -0.000172
H     2.042017   -1.404013    0.162365    0.102295   -0.085897    0.009912
H    -1.849178    1.207172   -0.161531   -0.002075   -0.001220    0.000043
H     1.818896    0.791640   -0.025176    1.807313    0.827229   -0.018634
11
* Frequency(31) 3192.8381
C     1.391749    0.591685   -0.020365   -0.158349   -0.074246    0.001783
C     1.171399   -0.800020    0.088606   -0.008697    0.016050   -0.001567
N     0.012563   -1.463972    0.112090    0.001176   -0.000093    0.000038
C    -1.137751   -0.728545    0.019668    0.000766    0.000793   -0.000044
N    -0.987486    0.674335   -0.092664    0.000690    0.000751   -0.000042
C     0.197443    1.423747   -0.121670    0.004852   -0.007847    0.000779
O    -2.278312   -1.195071    0.027550   -0.000187   -0.000134    0.000008
O     0.157362    2.653567   -0.224849   -0.000439    0.001914   -0.000172
H     2.050000   -1.410716    0.163139    0.102295   -0.085897    0.009912
H    -1.849339    1.207077   -0.161528   -0.002075   -0.001220    0.000043
H     1.959928    0.856191   -0.026630    1.807313    0.827229   -0.018634
11
* Frequency(31) 3192.8381
C     1.375703    0.584162   -0.020184   -0.158349   -0.074246    0.001783
C     1.170517   -0.798393    0.088447   -0.008697    0.016050   -0.001567
N     0.012682   -1.463982    0.112094    0.001176   -0.000093    0.000038
C    -1.137673   -0.728464    0.019664    0.000766    0.000793   -0.000044
N    -0.987416    0.674411   -0.092668    0.000690    0.000751   -0.000042
C     0.197935    1.422952   -0.121591    0.004852   -0.007847    0.000779
O    -2.278331   -1.195085    0.027551   -0.000187   -0.000134    0.000008
O     0.157318    2.653761   -0.224866   -0.000439    0.001914   -0.000172
H     2.060365   -1.419420    0.164143    0.102295   -0.085897    0.009912
H    -1.849550    1.206953   -0.161523   -0.002075   -0.001220    0.000043
H     2.143062    0.940014   -0.028518    1.807313    0.827229   -0.018634
11
* Frequency(31) 3192.8381
C     1.357708    0.575724   -0.019982   -0.158349   -0.074246    0.001783
C     1.169529   -0.796569    0.088269   -0.008697    0.016050   -0.001567
N     0.012816   -1.463992    0.112098    0.001176   -0.000093    0.000038
C    -1.137586   -0.728374    0.019659    0.000766    0.000793   -0.000044
N    -0.987337    0.674496   -0.092673    0.000690    0.000751   -0.000042
C     0.198487    1.422060   -0.121503    0.004852   -0.007847    0.000779
O    -2.278352   -1.195100    0.027552   -0.000187   -0.000134    0.000008
O     0.157268    2.653978   -0.224886   -0.000439    0.001914   -0.000172
H     2.071990   -1.429182    0.165269    0.102295   -0.085897    0.009912
H    -1.849786    1.206815   -0.161518   -0.002075   -0.001220    0.000043
H     2.348454    1.034025   -0.030636    1.807313    0.827229   -0.018634
