11
* (null), Energy   -1000.0000000
C     1.591454    0.406609    0.009810    0.000853   -0.002547   -0.031421
C     1.402862   -0.965542    0.118363    0.005028   -0.015141   -0.181580
N     0.246024   -1.632751    0.142050   -0.001767    0.005305    0.065799
C    -0.904486   -0.897558    0.049520   -0.005416    0.016564    0.200248
N    -0.754011    0.505509   -0.063362   -0.001061    0.003174    0.038637
C     0.431975    1.252895   -0.092416    0.007464   -0.022166   -0.270421
O    -2.045071   -1.364389    0.057523    0.001800   -0.005749   -0.069586
O     0.390516    2.484935   -0.194533   -0.001478    0.004470    0.053855
H     2.305441   -1.598210    0.195810   -0.000819    0.002773    0.033179
H    -1.616489    1.037825   -0.130328   -0.005254    0.016481    0.198224
H     2.582079    0.864994   -0.000426   -0.054229    0.160733    1.941278
11
* Frequency(14)  725.4785
C     1.591551    0.406320    0.006240    0.000853   -0.002547   -0.031421
C     1.403433   -0.967262    0.097728    0.005028   -0.015141   -0.181580
N     0.245823   -1.632148    0.149527   -0.001767    0.005305    0.065799
C    -0.905102   -0.895676    0.072277   -0.005416    0.016564    0.200248
N    -0.754132    0.505870   -0.058971   -0.001061    0.003174    0.038637
C     0.432823    1.250376   -0.123148    0.007464   -0.022166   -0.270421
O    -2.044866   -1.365042    0.049615    0.001800   -0.005749   -0.069586
O     0.390348    2.485443   -0.188413   -0.001478    0.004470    0.053855
H     2.305348   -1.597895    0.199581   -0.000819    0.002773    0.033179
H    -1.617086    1.039698   -0.107801   -0.005254    0.016481    0.198224
H     2.575916    0.883260    0.220190   -0.054229    0.160733    1.941278
11
* Frequency(14)  725.4785
C     1.591638    0.406062    0.003056    0.000853   -0.002547   -0.031421
C     1.403943   -0.968797    0.079328    0.005028   -0.015141   -0.181580
N     0.245644   -1.631610    0.156195   -0.001767    0.005305    0.065799
C    -0.905651   -0.893997    0.092568   -0.005416    0.016564    0.200248
N    -0.754239    0.506191   -0.055056   -0.001061    0.003174    0.038637
C     0.433580    1.248130   -0.150550    0.007464   -0.022166   -0.270421
O    -2.044684   -1.365625    0.042564    0.001800   -0.005749   -0.069586
O     0.390198    2.485896   -0.182956   -0.001478    0.004470    0.053855
H     2.305265   -1.597614    0.202943   -0.000819    0.002773    0.033179
H    -1.617618    1.041368   -0.087715   -0.005254    0.016481    0.198224
H     2.570421    0.899547    0.416899   -0.054229    0.160733    1.941278
11
* Frequency(14)  725.4785
C     1.591704    0.405863    0.000604    0.000853   -0.002547   -0.031421
C     1.404335   -0.969978    0.065159    0.005028   -0.015141   -0.181580
N     0.245506   -1.631196    0.161329   -0.001767    0.005305    0.065799
C    -0.906074   -0.892705    0.108194   -0.005416    0.016564    0.200248
N    -0.754322    0.506439   -0.052041   -0.001061    0.003174    0.038637
C     0.434162    1.246400   -0.171652    0.007464   -0.022166   -0.270421
O    -2.044543   -1.366073    0.037134    0.001800   -0.005749   -0.069586
O     0.390083    2.486245   -0.178753   -0.001478    0.004470    0.053855
H     2.305201   -1.597398    0.205532   -0.000819    0.002773    0.033179
H    -1.618028    1.042654   -0.072246   -0.005254    0.016481    0.198224
H     2.566190    0.912090    0.568384   -0.054229    0.160733    1.941278
11
* Frequency(14)  725.4785
C     1.591744    0.405745   -0.000851    0.000853   -0.002547   -0.031421
C     1.404568   -0.970679    0.056755    0.005028   -0.015141   -0.181580
N     0.245424   -1.630951    0.164375   -0.001767    0.005305    0.065799
C    -0.906324   -0.891938    0.117462   -0.005416    0.016564    0.200248
N    -0.754371    0.506586   -0.050253   -0.001061    0.003174    0.038637
C     0.434508    1.245375   -0.184167    0.007464   -0.022166   -0.270421
O    -2.044460   -1.366339    0.033913    0.001800   -0.005749   -0.069586
O     0.390015    2.486451   -0.176261   -0.001478    0.004470    0.053855
H     2.305163   -1.597269    0.207067   -0.000819    0.002773    0.033179
H    -1.618272    1.043417   -0.063072   -0.005254    0.016481    0.198224
H     2.563680    0.919529    0.658230   -0.054229    0.160733    1.941278
11
* Frequency(14)  725.4785
C     1.591752    0.405721   -0.001149    0.000853   -0.002547   -0.031421
C     1.404616   -0.970823    0.055027    0.005028   -0.015141   -0.181580
N     0.245408   -1.630900    0.165001   -0.001767    0.005305    0.065799
C    -0.906376   -0.891781    0.119367   -0.005416    0.016564    0.200248
N    -0.754381    0.506616   -0.049885   -0.001061    0.003174    0.038637
C     0.434579    1.245164   -0.186740    0.007464   -0.022166   -0.270421
O    -2.044443   -1.366394    0.033251    0.001800   -0.005749   -0.069586
O     0.390001    2.486494   -0.175748   -0.001478    0.004470    0.053855
H     2.305155   -1.597243    0.207383   -0.000819    0.002773    0.033179
H    -1.618322    1.043573   -0.061186   -0.005254    0.016481    0.198224
H     2.563164    0.921058    0.676701   -0.054229    0.160733    1.941278
11
* Frequency(14)  725.4785
C     1.591728    0.405793   -0.000261    0.000853   -0.002547   -0.031421
C     1.404474   -0.970395    0.060163    0.005028   -0.015141   -0.181580
N     0.245458   -1.631050    0.163139   -0.001767    0.005305    0.065799
C    -0.906223   -0.892249    0.113703   -0.005416    0.016564    0.200248
N    -0.754351    0.506526   -0.050978   -0.001061    0.003174    0.038637
C     0.434368    1.245791   -0.179092    0.007464   -0.022166   -0.270421
O    -2.044494   -1.366232    0.035219    0.001800   -0.005749   -0.069586
O     0.390042    2.486368   -0.177272   -0.001478    0.004470    0.053855
H     2.305178   -1.597321    0.206445   -0.000819    0.002773    0.033179
H    -1.618173    1.043107   -0.066793   -0.005254    0.016481    0.198224
H     2.564698    0.916512    0.621794   -0.054229    0.160733    1.941278
11
* Frequency(14)  725.4785
C     1.591674    0.405953    0.001719    0.000853   -0.002547   -0.031421
C     1.404157   -0.969441    0.071606    0.005028   -0.015141   -0.181580
N     0.245569   -1.631385    0.158993   -0.001767    0.005305    0.065799
C    -0.905881   -0.893293    0.101084   -0.005416    0.016564    0.200248
N    -0.754284    0.506326   -0.053413   -0.001061    0.003174    0.038637
C     0.433897    1.247187   -0.162050    0.007464   -0.022166   -0.270421
O    -2.044607   -1.365869    0.039604    0.001800   -0.005749   -0.069586
O     0.390136    2.486086   -0.180665   -0.001478    0.004470    0.053855
H     2.305230   -1.597496    0.204354   -0.000819    0.002773    0.033179
H    -1.617842    1.042069   -0.079284   -0.005254    0.016481    0.198224
H     2.568115    0.906383    0.499460   -0.054229    0.160733    1.941278
11
* Frequency(14)  725.4785
C     1.591596    0.406185    0.004576    0.000853   -0.002547   -0.031421
C     1.403700   -0.968064    0.088115    0.005028   -0.015141   -0.181580
N     0.245730   -1.631867    0.153011   -0.001767    0.005305    0.065799
C    -0.905389   -0.894799    0.082877   -0.005416    0.016564    0.200248
N    -0.754188    0.506038   -0.056926   -0.001061    0.003174    0.038637
C     0.433219    1.249203   -0.137463    0.007464   -0.022166   -0.270421
O    -2.044771   -1.365347    0.045931    0.001800   -0.005749   -0.069586
O     0.390270    2.485679   -0.185562   -0.001478    0.004470    0.053855
H     2.305305   -1.597748    0.201337   -0.000819    0.002773    0.033179
H    -1.617364    1.040570   -0.097307   -0.005254    0.016481    0.198224
H     2.573046    0.891769    0.322955   -0.054229    0.160733    1.941278
11
* Frequency(14)  725.4785
C     1.591503    0.406462    0.008000    0.000853   -0.002547   -0.031421
C     1.403152   -0.966414    0.107903    0.005028   -0.015141   -0.181580
N     0.245922   -1.632445    0.145840   -0.001767    0.005305    0.065799
C    -0.904799   -0.896604    0.061055   -0.005416    0.016564    0.200248
N    -0.754072    0.505692   -0.061136   -0.001061    0.003174    0.038637
C     0.432405    1.251618   -0.107994    0.007464   -0.022166   -0.270421
O    -2.044967   -1.364720    0.053514    0.001800   -0.005749   -0.069586
O     0.390431    2.485192   -0.191431   -0.001478    0.004470    0.053855
H     2.305394   -1.598050    0.197721   -0.000819    0.002773    0.033179
H    -1.616792    1.038774   -0.118908   -0.005254    0.016481    0.198224
H     2.578955    0.874253    0.111407   -0.054229    0.160733    1.941278
11
* Frequency(14)  725.4785
C     1.591405    0.406756    0.011621    0.000853   -0.002547   -0.031421
C     1.402572   -0.964670    0.128824    0.005028   -0.015141   -0.181580
N     0.246126   -1.633056    0.138259   -0.001767    0.005305    0.065799
C    -0.904174   -0.898513    0.037984   -0.005416    0.016564    0.200248
N    -0.753950    0.505326   -0.065588   -0.001061    0.003174    0.038637
C     0.431545    1.254172   -0.076838    0.007464   -0.022166   -0.270421
O    -2.045174   -1.364058    0.061532    0.001800   -0.005749   -0.069586
O     0.390601    2.484677   -0.197636   -0.001478    0.004470    0.053855
H     2.305488   -1.598370    0.193899   -0.000819    0.002773    0.033179
H    -1.616186    1.036875   -0.141747   -0.005254    0.016481    0.198224
H     2.585203    0.855734   -0.112259   -0.054229    0.160733    1.941278
11
* Frequency(14)  725.4785
C     1.591312    0.407034    0.015045    0.000853   -0.002547   -0.031421
C     1.402024   -0.963020    0.148611    0.005028   -0.015141   -0.181580
N     0.246318   -1.633634    0.131089   -0.001767    0.005305    0.065799
C    -0.903584   -0.900318    0.016162   -0.005416    0.016564    0.200248
N    -0.753835    0.504980   -0.069798   -0.001061    0.003174    0.038637
C     0.430732    1.256588   -0.047369    0.007464   -0.022166   -0.270421
O    -2.045371   -1.363431    0.069115    0.001800   -0.005749   -0.069586
O     0.390762    2.484190   -0.203504   -0.001478    0.004470    0.053855
H     2.305577   -1.598672    0.190283   -0.000819    0.002773    0.033179
H    -1.615614    1.035079   -0.163348   -0.005254    0.016481    0.198224
H     2.591113    0.838218   -0.323807   -0.054229    0.160733    1.941278
11
* Frequency(14)  725.4785
C     1.591235    0.407265    0.017902    0.000853   -0.002547   -0.031421
C     1.401567   -0.961643    0.165121    0.005028   -0.015141   -0.181580
N     0.246479   -1.634117    0.125106   -0.001767    0.005305    0.065799
C    -0.903092   -0.901824   -0.002045   -0.005416    0.016564    0.200248
N    -0.753738    0.504692   -0.073311   -0.001061    0.003174    0.038637
C     0.430053    1.258603   -0.022782    0.007464   -0.022166   -0.270421
O    -2.045534   -1.362909    0.075442    0.001800   -0.005749   -0.069586
O     0.390897    2.483784   -0.208401   -0.001478    0.004470    0.053855
H     2.305652   -1.598924    0.187266   -0.000819    0.002773    0.033179
H    -1.615136    1.033581   -0.181371   -0.005254    0.016481    0.198224
H     2.596043    0.823604   -0.500311   -0.054229    0.160733    1.941278
11
* Frequency(14)  725.4785
C     1.591181    0.407426    0.019882    0.000853   -0.002547   -0.031421
C     1.401250   -0.960689    0.176563    0.005028   -0.015141   -0.181580
N     0.246590   -1.634451    0.120960   -0.001767    0.005305    0.065799
C    -0.902750   -0.902867   -0.014664   -0.005416    0.016564    0.200248
N    -0.753671    0.504492   -0.075746   -0.001061    0.003174    0.038637
C     0.429583    1.260000   -0.005740    0.007464   -0.022166   -0.270421
O    -2.045648   -1.362546    0.079827    0.001800   -0.005749   -0.069586
O     0.390990    2.483502   -0.211795   -0.001478    0.004470    0.053855
H     2.305704   -1.599099    0.185175   -0.000819    0.002773    0.033179
H    -1.614805    1.032542   -0.193863   -0.005254    0.016481    0.198224
H     2.599461    0.813475   -0.622646   -0.054229    0.160733    1.941278
11
* Frequency(14)  725.4785
C     1.591157    0.407498    0.020770    0.000853   -0.002547   -0.031421
C     1.401108   -0.960261    0.181699    0.005028   -0.015141   -0.181580
N     0.246640   -1.634601    0.119099   -0.001767    0.005305    0.065799
C    -0.902597   -0.903336   -0.020328   -0.005416    0.016564    0.200248
N    -0.753641    0.504402   -0.076838   -0.001061    0.003174    0.038637
C     0.429372    1.260627    0.001908    0.007464   -0.022166   -0.270421
O    -2.045699   -1.362384    0.081795    0.001800   -0.005749   -0.069586
O     0.391032    2.483376   -0.213318   -0.001478    0.004470    0.053855
H     2.305727   -1.599177    0.184237   -0.000819    0.002773    0.033179
H    -1.614656    1.032076   -0.199469   -0.005254    0.016481    0.198224
H     2.600995    0.808929   -0.677552   -0.054229    0.160733    1.941278
11
* Frequency(14)  725.4785
C     1.591165    0.407473    0.020471    0.000853   -0.002547   -0.031421
C     1.401156   -0.960405    0.179972    0.005028   -0.015141   -0.181580
N     0.246623   -1.634550    0.119725   -0.001767    0.005305    0.065799
C    -0.902649   -0.903178   -0.018423   -0.005416    0.016564    0.200248
N    -0.753651    0.504432   -0.076471   -0.001061    0.003174    0.038637
C     0.429443    1.260416   -0.000665    0.007464   -0.022166   -0.270421
O    -2.045682   -1.362438    0.081133    0.001800   -0.005749   -0.069586
O     0.391018    2.483418   -0.212805   -0.001478    0.004470    0.053855
H     2.305719   -1.599151    0.184553   -0.000819    0.002773    0.033179
H    -1.614706    1.032233   -0.197583   -0.005254    0.016481    0.198224
H     2.600479    0.810459   -0.659082   -0.054229    0.160733    1.941278
11
* Frequency(14)  725.4785
C     1.591204    0.407356    0.019017    0.000853   -0.002547   -0.031421
C     1.401389   -0.961105    0.171568    0.005028   -0.015141   -0.181580
N     0.246542   -1.634305    0.122770   -0.001767    0.005305    0.065799
C    -0.902899   -0.902412   -0.009155   -0.005416    0.016564    0.200248
N    -0.753700    0.504579   -0.074683   -0.001061    0.003174    0.038637
C     0.429788    1.259390   -0.013180    0.007464   -0.022166   -0.270421
O    -2.045598   -1.362705    0.077912    0.001800   -0.005749   -0.069586
O     0.390949    2.483625   -0.210313   -0.001478    0.004470    0.053855
H     2.305681   -1.599023    0.186088   -0.000819    0.002773    0.033179
H    -1.614949    1.032996   -0.188409   -0.005254    0.016481    0.198224
H     2.597969    0.817898   -0.569236   -0.054229    0.160733    1.941278
11
* Frequency(14)  725.4785
C     1.591271    0.407157    0.016565    0.000853   -0.002547   -0.031421
C     1.401781   -0.962287    0.157398    0.005028   -0.015141   -0.181580
N     0.246404   -1.633891    0.127905   -0.001767    0.005305    0.065799
C    -0.903322   -0.901119    0.006471   -0.005416    0.016564    0.200248
N    -0.753783    0.504827   -0.071668   -0.001061    0.003174    0.038637
C     0.430370    1.257660   -0.034282    0.007464   -0.022166   -0.270421
O    -2.045458   -1.363153    0.072482    0.001800   -0.005749   -0.069586
O     0.390834    2.483974   -0.206110   -0.001478    0.004470    0.053855
H     2.305617   -1.598806    0.188677   -0.000819    0.002773    0.033179
H    -1.615359    1.034282   -0.172941   -0.005254    0.016481    0.198224
H     2.593737    0.830440   -0.417751   -0.054229    0.160733    1.941278
11
* Frequency(14)  725.4785
C     1.591357    0.406899    0.013381    0.000853   -0.002547   -0.031421
C     1.402291   -0.963821    0.138999    0.005028   -0.015141   -0.181580
N     0.246225   -1.633353    0.134572   -0.001767    0.005305    0.065799
C    -0.903871   -0.899441    0.026762   -0.005416    0.016564    0.200248
N    -0.753891    0.505148   -0.067753   -0.001061    0.003174    0.038637
C     0.431127    1.255414   -0.061684    0.007464   -0.022166   -0.270421
O    -2.045275   -1.363736    0.065431    0.001800   -0.005749   -0.069586
O     0.390684    2.484427   -0.200653   -0.001478    0.004470    0.053855
H     2.305534   -1.598525    0.192039   -0.000819    0.002773    0.033179
H    -1.615892    1.035952   -0.152855   -0.005254    0.016481    0.198224
H     2.588242    0.846727   -0.221042   -0.054229    0.160733    1.941278
11
* Frequency(14)  725.4785
C     1.591454    0.406609    0.009810    0.000853   -0.002547   -0.031421
C     1.402862   -0.965542    0.118363    0.005028   -0.015141   -0.181580
N     0.246024   -1.632751    0.142050   -0.001767    0.005305    0.065799
C    -0.904486   -0.897558    0.049520   -0.005416    0.016564    0.200248
N    -0.754011    0.505509   -0.063362   -0.001061    0.003174    0.038637
C     0.431975    1.252895   -0.092416    0.007464   -0.022166   -0.270421
O    -2.045071   -1.364389    0.057523    0.001800   -0.005749   -0.069586
O     0.390516    2.484935   -0.194533   -0.001478    0.004470    0.053855
H     2.305441   -1.598210    0.195810   -0.000819    0.002773    0.033179
H    -1.616489    1.037825   -0.130328   -0.005254    0.016481    0.198224
H     2.582079    0.864994   -0.000426   -0.054229    0.160733    1.941278
