11
* (null), Energy   -1000.0000000
C     1.591454    0.406609    0.009810    0.657294    0.096881    0.010330
C     1.402862   -0.965542    0.118363    0.269868    0.215465   -0.010281
N     0.246024   -1.632751    0.142050   -0.067755    0.867974   -0.074431
C    -0.904486   -0.897558    0.049520   -0.405409    0.315701   -0.037485
N    -0.754011    0.505509   -0.063362   -0.144939    0.010174   -0.004451
C     0.431975    1.252895   -0.092416    0.239300   -0.537504    0.050814
O    -2.045071   -1.364389    0.057523   -0.221064   -0.267837    0.016499
O     0.390516    2.484935   -0.194533   -0.213576   -0.630693    0.045992
H     2.305441   -1.598210    0.195810   -0.099583   -0.329025    0.025149
H    -1.616489    1.037825   -0.130328    0.391190    0.874859   -0.060377
H     2.582079    0.864994   -0.000426    0.494096    0.434187   -0.019892
11
* Frequency(10)  523.6096
C     1.666152    0.417619    0.010984    0.657294    0.096881    0.010330
C     1.433531   -0.941055    0.117195    0.269868    0.215465   -0.010281
N     0.238324   -1.534110    0.133591   -0.067755    0.867974   -0.074431
C    -0.950559   -0.861681    0.045260   -0.405409    0.315701   -0.037485
N    -0.770483    0.506665   -0.063868   -0.144939    0.010174   -0.004451
C     0.459170    1.191811   -0.086641    0.239300   -0.537504    0.050814
O    -2.070194   -1.394827    0.059398   -0.221064   -0.267837    0.016499
O     0.366244    2.413260   -0.189306   -0.213576   -0.630693    0.045992
H     2.294124   -1.635602    0.198668   -0.099583   -0.329025    0.025149
H    -1.572032    1.137248   -0.137189    0.391190    0.874859   -0.060377
H     2.638231    0.914337   -0.002687    0.494096    0.434187   -0.019892
11
* Frequency(10)  523.6096
C     1.732756    0.427436    0.012031    0.657294    0.096881    0.010330
C     1.460877   -0.919222    0.116153    0.269868    0.215465   -0.010281
N     0.231458   -1.446158    0.126049   -0.067755    0.867974   -0.074431
C    -0.991639   -0.829691    0.041461   -0.405409    0.315701   -0.037485
N    -0.785169    0.507696   -0.064319   -0.144939    0.010174   -0.004451
C     0.483419    1.137346   -0.081492    0.239300   -0.537504    0.050814
O    -2.092594   -1.421967    0.061070   -0.221064   -0.267837    0.016499
O     0.344603    2.349352   -0.184646   -0.213576   -0.630693    0.045992
H     2.284033   -1.668942    0.201216   -0.099583   -0.329025    0.025149
H    -1.532393    1.225897   -0.143307    0.391190    0.874859   -0.060377
H     2.688297    0.958333   -0.004702    0.494096    0.434187   -0.019892
11
* Frequency(10)  523.6096
C     1.784047    0.434996    0.012837    0.657294    0.096881    0.010330
C     1.481936   -0.902409    0.115351    0.269868    0.215465   -0.010281
N     0.226171   -1.378427    0.120241   -0.067755    0.867974   -0.074431
C    -1.023275   -0.805055    0.038536   -0.405409    0.315701   -0.037485
N    -0.796480    0.508490   -0.064666   -0.144939    0.010174   -0.004451
C     0.502092    1.095402   -0.077527    0.239300   -0.537504    0.050814
O    -2.109844   -1.442867    0.062357   -0.221064   -0.267837    0.016499
O     0.327937    2.300136   -0.181057   -0.213576   -0.630693    0.045992
H     2.276262   -1.694617    0.203179   -0.099583   -0.329025    0.025149
H    -1.501867    1.294166   -0.148019    0.391190    0.874859   -0.060377
H     2.726853    0.992214   -0.006254    0.494096    0.434187   -0.019892
11
* Frequency(10)  523.6096
C     1.814468    0.439480    0.013315    0.657294    0.096881    0.010330
C     1.494426   -0.892437    0.114875    0.269868    0.215465   -0.010281
N     0.223035   -1.338256    0.116796   -0.067755    0.867974   -0.074431
C    -1.042038   -0.790444    0.036801   -0.405409    0.315701   -0.037485
N    -0.803188    0.508961   -0.064872   -0.144939    0.010174   -0.004451
C     0.513167    1.070525   -0.075175    0.239300   -0.537504    0.050814
O    -2.120076   -1.455263    0.063121   -0.221064   -0.267837    0.016499
O     0.318052    2.270947   -0.178928   -0.213576   -0.630693    0.045992
H     2.271654   -1.709845    0.204343   -0.099583   -0.329025    0.025149
H    -1.483762    1.334656   -0.150813    0.391190    0.874859   -0.060377
H     2.749721    1.012309   -0.007175    0.494096    0.434187   -0.019892
11
* Frequency(10)  523.6096
C     1.820722    0.440402    0.013414    0.657294    0.096881    0.010330
C     1.496993   -0.890387    0.114777    0.269868    0.215465   -0.010281
N     0.222391   -1.329997    0.116088   -0.067755    0.867974   -0.074431
C    -1.045895   -0.787441    0.036445   -0.405409    0.315701   -0.037485
N    -0.804567    0.509058   -0.064914   -0.144939    0.010174   -0.004451
C     0.515444    1.065411   -0.074692    0.239300   -0.537504    0.050814
O    -2.122179   -1.457812    0.063278   -0.221064   -0.267837    0.016499
O     0.316020    2.264946   -0.178491   -0.213576   -0.630693    0.045992
H     2.270706   -1.712976    0.204582   -0.099583   -0.329025    0.025149
H    -1.480040    1.342980   -0.151388    0.391190    0.874859   -0.060377
H     2.754422    1.016440   -0.007364    0.494096    0.434187   -0.019892
11
* Frequency(10)  523.6096
C     1.802131    0.437661    0.013121    0.657294    0.096881    0.010330
C     1.489360   -0.896481    0.115068    0.269868    0.215465   -0.010281
N     0.224307   -1.354547    0.118193   -0.067755    0.867974   -0.074431
C    -1.034428   -0.796370    0.037505   -0.405409    0.315701   -0.037485
N    -0.800467    0.508770   -0.064789   -0.144939    0.010174   -0.004451
C     0.508676    1.080614   -0.076129    0.239300   -0.537504    0.050814
O    -2.115926   -1.450236    0.062811   -0.221064   -0.267837    0.016499
O     0.322061    2.282785   -0.179792   -0.213576   -0.630693    0.045992
H     2.273523   -1.703669    0.203871   -0.099583   -0.329025    0.025149
H    -1.491104    1.318235   -0.149680    0.391190    0.874859   -0.060377
H     2.740447    1.004159   -0.006802    0.494096    0.434187   -0.019892
11
* Frequency(10)  523.6096
C     1.760710    0.431556    0.012470    0.657294    0.096881    0.010330
C     1.472354   -0.910059    0.115716    0.269868    0.215465   -0.010281
N     0.228577   -1.409244    0.122883   -0.067755    0.867974   -0.074431
C    -1.008881   -0.816264    0.039867   -0.405409    0.315701   -0.037485
N    -0.791334    0.508129   -0.064508   -0.144939    0.010174   -0.004451
C     0.493596    1.114486   -0.079331    0.239300   -0.537504    0.050814
O    -2.101995   -1.433358    0.061771   -0.221064   -0.267837    0.016499
O     0.335520    2.322529   -0.182690   -0.213576   -0.630693    0.045992
H     2.279798   -1.682935    0.202286   -0.099583   -0.329025    0.025149
H    -1.515756    1.263104   -0.145875    0.391190    0.874859   -0.060377
H     2.709311    0.976798   -0.005548    0.494096    0.434187   -0.019892
11
* Frequency(10)  523.6096
C     1.700947    0.422748    0.011531    0.657294    0.096881    0.010330
C     1.447817   -0.929649    0.116651    0.269868    0.215465   -0.010281
N     0.234737   -1.488162    0.129651   -0.067755    0.867974   -0.074431
C    -0.972020   -0.844968    0.043275   -0.405409    0.315701   -0.037485
N    -0.778155    0.507204   -0.064103   -0.144939    0.010174   -0.004451
C     0.471838    1.163357   -0.083951    0.239300   -0.537504    0.050814
O    -2.081896   -1.409006    0.060271   -0.221064   -0.267837    0.016499
O     0.354938    2.379873   -0.186872   -0.213576   -0.630693    0.045992
H     2.288852   -1.653020    0.199999   -0.099583   -0.329025    0.025149
H    -1.551324    1.183560   -0.140385    0.391190    0.874859   -0.060377
H     2.664387    0.937321   -0.003740    0.494096    0.434187   -0.019892
11
* Frequency(10)  523.6096
C     1.629320    0.412190    0.010406    0.657294    0.096881    0.010330
C     1.418409   -0.953129    0.117771    0.269868    0.215465   -0.010281
N     0.242121   -1.582748    0.137762   -0.067755    0.867974   -0.074431
C    -0.927841   -0.879371    0.047360   -0.405409    0.315701   -0.037485
N    -0.762361    0.506095   -0.063618   -0.144939    0.010174   -0.004451
C     0.445761    1.221931   -0.089489    0.239300   -0.537504    0.050814
O    -2.057806   -1.379819    0.058473   -0.221064   -0.267837    0.016499
O     0.378212    2.448602   -0.191884   -0.213576   -0.630693    0.045992
H     2.299704   -1.617165    0.197259   -0.099583   -0.329025    0.025149
H    -1.593953    1.088224   -0.133806    0.391190    0.874859   -0.060377
H     2.610543    0.890006   -0.001572    0.494096    0.434187   -0.019892
11
* Frequency(10)  523.6096
C     1.553589    0.401028    0.009215    0.657294    0.096881    0.010330
C     1.387315   -0.977954    0.118956    0.269868    0.215465   -0.010281
N     0.249927   -1.682753    0.146337   -0.067755    0.867974   -0.074431
C    -0.881132   -0.915745    0.051679   -0.405409    0.315701   -0.037485
N    -0.745662    0.504923   -0.063105   -0.144939    0.010174   -0.004451
C     0.418189    1.283860   -0.095343    0.239300   -0.537504    0.050814
O    -2.032336   -1.348959    0.056573   -0.221064   -0.267837    0.016499
O     0.402820    2.521268   -0.197183   -0.213576   -0.630693    0.045992
H     2.311178   -1.579255    0.194361   -0.099583   -0.329025    0.025149
H    -1.639025    0.987426   -0.126850    0.391190    0.874859   -0.060377
H     2.553615    0.839981    0.000720    0.494096    0.434187   -0.019892
11
* Frequency(10)  523.6096
C     1.481961    0.390471    0.008090    0.657294    0.096881    0.010330
C     1.357907   -1.001434    0.120076    0.269868    0.215465   -0.010281
N     0.257311   -1.777339    0.154448   -0.067755    0.867974   -0.074431
C    -0.836953   -0.950148    0.055764   -0.405409    0.315701   -0.037485
N    -0.729867    0.503814   -0.062620   -0.144939    0.010174   -0.004451
C     0.392112    1.342434   -0.100881    0.239300   -0.537504    0.050814
O    -2.008246   -1.319772    0.054775   -0.221064   -0.267837    0.016499
O     0.426094    2.589997   -0.202195   -0.213576   -0.630693    0.045992
H     2.322030   -1.543400    0.191621   -0.099583   -0.329025    0.025149
H    -1.681654    0.892089   -0.120270    0.391190    0.874859   -0.060377
H     2.499772    0.792666    0.002888    0.494096    0.434187   -0.019892
11
* Frequency(10)  523.6096
C     1.422199    0.381662    0.007151    0.657294    0.096881    0.010330
C     1.333370   -1.021025    0.121011    0.269868    0.215465   -0.010281
N     0.263471   -1.856257    0.161216   -0.067755    0.867974   -0.074431
C    -0.800092   -0.978852    0.059172   -0.405409    0.315701   -0.037485
N    -0.716689    0.502889   -0.062216   -0.144939    0.010174   -0.004451
C     0.370354    1.391304   -0.105501    0.239300   -0.537504    0.050814
O    -1.988146   -1.295420    0.053275   -0.221064   -0.267837    0.016499
O     0.445513    2.647340   -0.206376   -0.213576   -0.630693    0.045992
H     2.331084   -1.513485    0.189334   -0.099583   -0.329025    0.025149
H    -1.717222    0.812546   -0.114780    0.391190    0.874859   -0.060377
H     2.454848    0.753189    0.004696    0.494096    0.434187   -0.019892
11
* Frequency(10)  523.6096
C     1.380778    0.375557    0.006500    0.657294    0.096881    0.010330
C     1.316364   -1.034603    0.121659    0.269868    0.215465   -0.010281
N     0.267741   -1.910954    0.165906   -0.067755    0.867974   -0.074431
C    -0.774545   -0.998747    0.061534   -0.405409    0.315701   -0.037485
N    -0.707555    0.502248   -0.061935   -0.144939    0.010174   -0.004451
C     0.355274    1.425176   -0.108703    0.239300   -0.537504    0.050814
O    -1.974215   -1.278542    0.052235   -0.221064   -0.267837    0.016499
O     0.458971    2.687085   -0.209275   -0.213576   -0.630693    0.045992
H     2.337359   -1.492751    0.187749   -0.099583   -0.329025    0.025149
H    -1.741873    0.757415   -0.110976    0.391190    0.874859   -0.060377
H     2.423711    0.725828    0.005950    0.494096    0.434187   -0.019892
11
* Frequency(10)  523.6096
C     1.362187    0.372817    0.006207    0.657294    0.096881    0.010330
C     1.308731   -1.040697    0.121949    0.269868    0.215465   -0.010281
N     0.269657   -1.935504    0.168012   -0.067755    0.867974   -0.074431
C    -0.763078   -1.007676    0.062595   -0.405409    0.315701   -0.037485
N    -0.703456    0.501960   -0.061809   -0.144939    0.010174   -0.004451
C     0.348506    1.440379   -0.110140    0.239300   -0.537504    0.050814
O    -1.967963   -1.270966    0.051768   -0.221064   -0.267837    0.016499
O     0.465012    2.704924   -0.210575   -0.213576   -0.630693    0.045992
H     2.340176   -1.483445    0.187038   -0.099583   -0.329025    0.025149
H    -1.752938    0.732670   -0.109268    0.391190    0.874859   -0.060377
H     2.409736    0.713547    0.006512    0.494096    0.434187   -0.019892
11
* Frequency(10)  523.6096
C     1.368441    0.373739    0.006306    0.657294    0.096881    0.010330
C     1.311298   -1.038647    0.121852    0.269868    0.215465   -0.010281
N     0.269012   -1.927246    0.167303   -0.067755    0.867974   -0.074431
C    -0.766935   -1.004672    0.062238   -0.405409    0.315701   -0.037485
N    -0.704835    0.502057   -0.061851   -0.144939    0.010174   -0.004451
C     0.350783    1.435265   -0.109657    0.239300   -0.537504    0.050814
O    -1.970066   -1.273515    0.051925   -0.221064   -0.267837    0.016499
O     0.462980    2.698923   -0.210138   -0.213576   -0.630693    0.045992
H     2.339228   -1.486575    0.187277   -0.099583   -0.329025    0.025149
H    -1.749216    0.740994   -0.109842    0.391190    0.874859   -0.060377
H     2.414437    0.717678    0.006323    0.494096    0.434187   -0.019892
11
* Frequency(10)  523.6096
C     1.398862    0.378222    0.006784    0.657294    0.096881    0.010330
C     1.323788   -1.028675    0.121376    0.269868    0.215465   -0.010281
N     0.265877   -1.887074    0.163859   -0.067755    0.867974   -0.074431
C    -0.785698   -0.990061    0.060503   -0.405409    0.315701   -0.037485
N    -0.711543    0.502528   -0.062057   -0.144939    0.010174   -0.004451
C     0.361858    1.410388   -0.107305    0.239300   -0.537504    0.050814
O    -1.980297   -1.285911    0.052689   -0.221064   -0.267837    0.016499
O     0.453096    2.669733   -0.208009   -0.213576   -0.630693    0.045992
H     2.334620   -1.501803    0.188441   -0.099583   -0.329025    0.025149
H    -1.731111    0.781484   -0.112637    0.391190    0.874859   -0.060377
H     2.437305    0.737773    0.005403    0.494096    0.434187   -0.019892
11
* Frequency(10)  523.6096
C     1.450153    0.385782    0.007590    0.657294    0.096881    0.010330
C     1.344847   -1.011861    0.120573    0.269868    0.215465   -0.010281
N     0.260589   -1.819343    0.158050   -0.067755    0.867974   -0.074431
C    -0.817334   -0.965426    0.057578   -0.405409    0.315701   -0.037485
N    -0.722853    0.503322   -0.062405   -0.144939    0.010174   -0.004451
C     0.380532    1.368445   -0.103340    0.239300   -0.537504    0.050814
O    -1.997548   -1.306811    0.053976   -0.221064   -0.267837    0.016499
O     0.436429    2.620518   -0.204420   -0.213576   -0.630693    0.045992
H     2.326849   -1.527478    0.190404   -0.099583   -0.329025    0.025149
H    -1.700585    0.849753   -0.117348    0.391190    0.874859   -0.060377
H     2.475861    0.771655    0.003850    0.494096    0.434187   -0.019892
11
* Frequency(10)  523.6096
C     1.516756    0.395599    0.008637    0.657294    0.096881    0.010330
C     1.372193   -0.990028    0.119532    0.269868    0.215465   -0.010281
N     0.253724   -1.731391    0.150508   -0.067755    0.867974   -0.074431
C    -0.858414   -0.933436    0.053780   -0.405409    0.315701   -0.037485
N    -0.737540    0.504353   -0.062856   -0.144939    0.010174   -0.004451
C     0.404780    1.313980   -0.098191    0.239300   -0.537504    0.050814
O    -2.019948   -1.333951    0.055648   -0.221064   -0.267837    0.016499
O     0.414788    2.556610   -0.199760   -0.213576   -0.630693    0.045992
H     2.316758   -1.560818    0.192952   -0.099583   -0.329025    0.025149
H    -1.660946    0.938402   -0.123466    0.391190    0.874859   -0.060377
H     2.525928    0.815651    0.001835    0.494096    0.434187   -0.019892
11
* Frequency(10)  523.6096
C     1.591454    0.406609    0.009810    0.657294    0.096881    0.010330
C     1.402862   -0.965542    0.118363    0.269868    0.215465   -0.010281
N     0.246024   -1.632751    0.142050   -0.067755    0.867974   -0.074431
C    -0.904486   -0.897558    0.049520   -0.405409    0.315701   -0.037485
N    -0.754011    0.505509   -0.063362   -0.144939    0.010174   -0.004451
C     0.431975    1.252895   -0.092416    0.239300   -0.537504    0.050814
O    -2.045071   -1.364389    0.057523   -0.221064   -0.267837    0.016499
O     0.390516    2.484935   -0.194533   -0.213576   -0.630693    0.045992
H     2.305441   -1.598210    0.195810   -0.099583   -0.329025    0.025149
H    -1.616489    1.037825   -0.130328    0.391190    0.874859   -0.060377
H     2.582079    0.864994   -0.000426    0.494096    0.434187   -0.019892
