11
* (null), Energy   -1000.0000000
C     1.357708    0.575724   -0.019982    0.004107   -0.010796   -0.134195
C     1.169529   -0.796569    0.088269   -0.001202    0.004200    0.047995
N     0.012816   -1.463992    0.112098    0.002392   -0.007158   -0.080962
C    -1.137586   -0.728374    0.019659   -0.001351    0.003014    0.043241
N    -0.987337    0.674496   -0.092673   -0.003918    0.011313    0.136037
C     0.198487    1.422060   -0.121503   -0.000979    0.003661    0.042374
O    -2.278352   -1.195100    0.027552   -0.001160    0.002117    0.023255
O     0.157268    2.653978   -0.224886   -0.000675    0.001962    0.022327
H     2.071990   -1.429182    0.165269   -0.005574    0.017814    0.210898
H    -1.849786    1.206815   -0.161518    0.055567   -0.162562   -1.951359
H     2.348454    1.034025   -0.030636   -0.006522    0.021319    0.258639
11
* Frequency(13)  700.6783
C     1.358174    0.574497   -0.035232    0.004107   -0.010796   -0.134195
C     1.169392   -0.796092    0.093723   -0.001202    0.004200    0.047995
N     0.013088   -1.464806    0.102897    0.002392   -0.007158   -0.080962
C    -1.137739   -0.728032    0.024573   -0.001351    0.003014    0.043241
N    -0.987783    0.675782   -0.077213   -0.003918    0.011313    0.136037
C     0.198375    1.422476   -0.116687   -0.000979    0.003661    0.042374
O    -2.278484   -1.194860    0.030195   -0.001160    0.002117    0.023255
O     0.157191    2.654201   -0.222348   -0.000675    0.001962    0.022327
H     2.071357   -1.427157    0.189237   -0.005574    0.017814    0.210898
H    -1.843471    1.188340   -0.383280    0.055567   -0.162562   -1.951359
H     2.347713    1.036447   -0.001243   -0.006522    0.021319    0.258639
11
* Frequency(13)  700.6783
C     1.358591    0.573403   -0.048830    0.004107   -0.010796   -0.134195
C     1.169271   -0.795667    0.098587   -0.001202    0.004200    0.047995
N     0.013330   -1.465531    0.094693    0.002392   -0.007158   -0.080962
C    -1.137876   -0.727726    0.028954   -0.001351    0.003014    0.043241
N    -0.988180    0.676928   -0.063428   -0.003918    0.011313    0.136037
C     0.198276    1.422847   -0.112393   -0.000979    0.003661    0.042374
O    -2.278602   -1.194645    0.032551   -0.001160    0.002117    0.023255
O     0.157123    2.654400   -0.220086   -0.000675    0.001962    0.022327
H     2.070792   -1.425352    0.210607   -0.005574    0.017814    0.210898
H    -1.837840    1.171868   -0.581011    0.055567   -0.162562   -1.951359
H     2.347052    1.038608    0.024965   -0.006522    0.021319    0.258639
11
* Frequency(13)  700.6783
C     1.358911    0.572561   -0.059302    0.004107   -0.010796   -0.134195
C     1.169177   -0.795339    0.102332   -0.001202    0.004200    0.047995
N     0.013517   -1.466090    0.088375    0.002392   -0.007158   -0.080962
C    -1.137982   -0.727491    0.032329   -0.001351    0.003014    0.043241
N    -0.988485    0.677811   -0.052813   -0.003918    0.011313    0.136037
C     0.198200    1.423133   -0.109087   -0.000979    0.003661    0.042374
O    -2.278692   -1.194480    0.034366   -0.001160    0.002117    0.023255
O     0.157070    2.654553   -0.218344   -0.000675    0.001962    0.022327
H     2.070357   -1.423962    0.227064   -0.005574    0.017814    0.210898
H    -1.833504    1.159182   -0.733283    0.055567   -0.162562   -1.951359
H     2.346543    1.040271    0.045147   -0.006522    0.021319    0.258639
11
* Frequency(13)  700.6783
C     1.359101    0.572061   -0.065513    0.004107   -0.010796   -0.134195
C     1.169121   -0.795144    0.104553   -0.001202    0.004200    0.047995
N     0.013628   -1.466421    0.084628    0.002392   -0.007158   -0.080962
C    -1.138044   -0.727351    0.034330   -0.001351    0.003014    0.043241
N    -0.988667    0.678335   -0.046517   -0.003918    0.011313    0.136037
C     0.198154    1.423303   -0.107125   -0.000979    0.003661    0.042374
O    -2.278746   -1.194382    0.035442   -0.001160    0.002117    0.023255
O     0.157039    2.654644   -0.217310   -0.000675    0.001962    0.022327
H     2.070099   -1.423138    0.236825   -0.005574    0.017814    0.210898
H    -1.830932    1.151659   -0.823595    0.055567   -0.162562   -1.951359
H     2.346241    1.041258    0.057117   -0.006522    0.021319    0.258639
11
* Frequency(13)  700.6783
C     1.359140    0.571958   -0.066790    0.004107   -0.010796   -0.134195
C     1.169110   -0.795104    0.105010   -0.001202    0.004200    0.047995
N     0.013650   -1.466489    0.083858    0.002392   -0.007158   -0.080962
C    -1.138057   -0.727323    0.034741   -0.001351    0.003014    0.043241
N    -0.988704    0.678442   -0.045222   -0.003918    0.011313    0.136037
C     0.198145    1.423337   -0.106722   -0.000979    0.003661    0.042374
O    -2.278757   -1.194362    0.035663   -0.001160    0.002117    0.023255
O     0.157032    2.654663   -0.217098   -0.000675    0.001962    0.022327
H     2.070046   -1.422968    0.238832   -0.005574    0.017814    0.210898
H    -1.830404    1.150112   -0.842161    0.055567   -0.162562   -1.951359
H     2.346179    1.041461    0.059578   -0.006522    0.021319    0.258639
11
* Frequency(13)  700.6783
C     1.359024    0.572264   -0.062994    0.004107   -0.010796   -0.134195
C     1.169144   -0.795223    0.103652   -0.001202    0.004200    0.047995
N     0.013583   -1.466287    0.086148    0.002392   -0.007158   -0.080962
C    -1.138019   -0.727408    0.033518   -0.001351    0.003014    0.043241
N    -0.988593    0.678122   -0.049070   -0.003918    0.011313    0.136037
C     0.198173    1.423234   -0.107921   -0.000979    0.003661    0.042374
O    -2.278724   -1.194422    0.035006   -0.001160    0.002117    0.023255
O     0.157051    2.654607   -0.217729   -0.000675    0.001962    0.022327
H     2.070204   -1.423472    0.232867   -0.005574    0.017814    0.210898
H    -1.831975    1.154710   -0.786969    0.055567   -0.162562   -1.951359
H     2.346364    1.040858    0.052263   -0.006522    0.021319    0.258639
11
* Frequency(13)  700.6783
C     1.358765    0.572944   -0.054537    0.004107   -0.010796   -0.134195
C     1.169219   -0.795488    0.100628   -0.001202    0.004200    0.047995
N     0.013432   -1.465836    0.091250    0.002392   -0.007158   -0.080962
C    -1.137934   -0.727598    0.030793   -0.001351    0.003014    0.043241
N    -0.988346    0.677409   -0.057643   -0.003918    0.011313    0.136037
C     0.198234    1.423003   -0.110591   -0.000979    0.003661    0.042374
O    -2.278651   -1.194555    0.033540   -0.001160    0.002117    0.023255
O     0.157094    2.654483   -0.219136   -0.000675    0.001962    0.022327
H     2.070555   -1.424595    0.219576   -0.005574    0.017814    0.210898
H    -1.835477    1.164954   -0.664000    0.055567   -0.162562   -1.951359
H     2.346775    1.039514    0.035964   -0.006522    0.021319    0.258639
11
* Frequency(13)  700.6783
C     1.358392    0.573926   -0.042336    0.004107   -0.010796   -0.134195
C     1.169329   -0.795870    0.096264   -0.001202    0.004200    0.047995
N     0.013214   -1.465185    0.098611    0.002392   -0.007158   -0.080962
C    -1.137811   -0.727872    0.026862   -0.001351    0.003014    0.043241
N    -0.987990    0.676381   -0.070011   -0.003918    0.011313    0.136037
C     0.198323    1.422670   -0.114444   -0.000979    0.003661    0.042374
O    -2.278546   -1.194747    0.031426   -0.001160    0.002117    0.023255
O     0.157155    2.654305   -0.221166   -0.000675    0.001962    0.022327
H     2.071062   -1.426214    0.200401   -0.005574    0.017814    0.210898
H    -1.840529    1.179735   -0.486579    0.055567   -0.162562   -1.951359
H     2.347368    1.037576    0.012448   -0.006522    0.021319    0.258639
11
* Frequency(13)  700.6783
C     1.357944    0.575102   -0.027712    0.004107   -0.010796   -0.134195
C     1.169460   -0.796327    0.091034   -0.001202    0.004200    0.047995
N     0.012954   -1.464405    0.107434    0.002392   -0.007158   -0.080962
C    -1.137664   -0.728200    0.022150   -0.001351    0.003014    0.043241
N    -0.987563    0.675148   -0.084836   -0.003918    0.011313    0.136037
C     0.198430    1.422271   -0.119062   -0.000979    0.003661    0.042374
O    -2.278419   -1.194978    0.028892   -0.001160    0.002117    0.023255
O     0.157229    2.654091   -0.223599   -0.000675    0.001962    0.022327
H     2.071669   -1.428156    0.177419   -0.005574    0.017814    0.210898
H    -1.846584    1.197450   -0.273933    0.055567   -0.162562   -1.951359
H     2.348078    1.035253   -0.015736   -0.006522    0.021319    0.258639
11
* Frequency(13)  700.6783
C     1.357471    0.576346   -0.012251    0.004107   -0.010796   -0.134195
C     1.169598   -0.796811    0.085504   -0.001202    0.004200    0.047995
N     0.012678   -1.463580    0.116762    0.002392   -0.007158   -0.080962
C    -1.137508   -0.728548    0.017168   -0.001351    0.003014    0.043241
N    -0.987112    0.673844   -0.100510   -0.003918    0.011313    0.136037
C     0.198543    1.421849   -0.123944   -0.000979    0.003661    0.042374
O    -2.278286   -1.195222    0.026212   -0.001160    0.002117    0.023255
O     0.157306    2.653865   -0.226172   -0.000675    0.001962    0.022327
H     2.072312   -1.430208    0.153120   -0.005574    0.017814    0.210898
H    -1.852987    1.216179   -0.049104    0.055567   -0.162562   -1.951359
H     2.348830    1.032796   -0.045536   -0.006522    0.021319    0.258639
11
* Frequency(13)  700.6783
C     1.357024    0.577523    0.002373    0.004107   -0.010796   -0.134195
C     1.169729   -0.797269    0.080274   -0.001202    0.004200    0.047995
N     0.012418   -1.462800    0.125585    0.002392   -0.007158   -0.080962
C    -1.137361   -0.728876    0.012456   -0.001351    0.003014    0.043241
N    -0.986685    0.672612   -0.115334   -0.003918    0.011313    0.136037
C     0.198650    1.421450   -0.128562   -0.000979    0.003661    0.042374
O    -2.278159   -1.195453    0.023678   -0.001160    0.002117    0.023255
O     0.157380    2.653651   -0.228605   -0.000675    0.001962    0.022327
H     2.072919   -1.432149    0.130138   -0.005574    0.017814    0.210898
H    -1.859042    1.233894    0.163542    0.055567   -0.162562   -1.951359
H     2.349540    1.030473   -0.073720   -0.006522    0.021319    0.258639
11
* Frequency(13)  700.6783
C     1.356650    0.578504    0.014574    0.004107   -0.010796   -0.134195
C     1.169838   -0.797651    0.075910   -0.001202    0.004200    0.047995
N     0.012200   -1.462149    0.132946    0.002392   -0.007158   -0.080962
C    -1.137238   -0.729150    0.008524   -0.001351    0.003014    0.043241
N    -0.986329    0.671583   -0.127703   -0.003918    0.011313    0.136037
C     0.198739    1.421118   -0.132414   -0.000979    0.003661    0.042374
O    -2.278054   -1.195645    0.021564   -0.001160    0.002117    0.023255
O     0.157441    2.653473   -0.230635   -0.000675    0.001962    0.022327
H     2.073426   -1.433769    0.110963   -0.005574    0.017814    0.210898
H    -1.864094    1.248675    0.340963    0.055567   -0.162562   -1.951359
H     2.350133    1.028535   -0.097236   -0.006522    0.021319    0.258639
11
* Frequency(13)  700.6783
C     1.356392    0.579185    0.023031    0.004107   -0.010796   -0.134195
C     1.169914   -0.797915    0.072886   -0.001202    0.004200    0.047995
N     0.012049   -1.461698    0.138048    0.002392   -0.007158   -0.080962
C    -1.137153   -0.729340    0.005799   -0.001351    0.003014    0.043241
N    -0.986082    0.670870   -0.136276   -0.003918    0.011313    0.136037
C     0.198800    1.420887   -0.135085   -0.000979    0.003661    0.042374
O    -2.277981   -1.195779    0.020098   -0.001160    0.002117    0.023255
O     0.157484    2.653349   -0.232042   -0.000675    0.001962    0.022327
H     2.073777   -1.434892    0.097672   -0.005574    0.017814    0.210898
H    -1.867596    1.258919    0.463933    0.055567   -0.162562   -1.951359
H     2.350544    1.027191   -0.113535   -0.006522    0.021319    0.258639
11
* Frequency(13)  700.6783
C     1.356275    0.579490    0.026826    0.004107   -0.010796   -0.134195
C     1.169948   -0.798034    0.071528   -0.001202    0.004200    0.047995
N     0.011982   -1.461496    0.140338    0.002392   -0.007158   -0.080962
C    -1.137115   -0.729425    0.004576   -0.001351    0.003014    0.043241
N    -0.985971    0.670550   -0.140123   -0.003918    0.011313    0.136037
C     0.198828    1.420783   -0.136283   -0.000979    0.003661    0.042374
O    -2.277948   -1.195839    0.019440   -0.001160    0.002117    0.023255
O     0.157503    2.653293   -0.232673   -0.000675    0.001962    0.022327
H     2.073935   -1.435396    0.091707   -0.005574    0.017814    0.210898
H    -1.869167    1.263517    0.519125    0.055567   -0.162562   -1.951359
H     2.350729    1.026588   -0.120850   -0.006522    0.021319    0.258639
11
* Frequency(13)  700.6783
C     1.356314    0.579387    0.025549    0.004107   -0.010796   -0.134195
C     1.169937   -0.797994    0.071985   -0.001202    0.004200    0.047995
N     0.012005   -1.461564    0.139568    0.002392   -0.007158   -0.080962
C    -1.137128   -0.729397    0.004988   -0.001351    0.003014    0.043241
N    -0.986008    0.670658   -0.138829   -0.003918    0.011313    0.136037
C     0.198819    1.420818   -0.135880   -0.000979    0.003661    0.042374
O    -2.277959   -1.195819    0.019662   -0.001160    0.002117    0.023255
O     0.157496    2.653312   -0.232461   -0.000675    0.001962    0.022327
H     2.073882   -1.435226    0.093714   -0.005574    0.017814    0.210898
H    -1.868639    1.261970    0.500558    0.055567   -0.162562   -1.951359
H     2.350667    1.026791   -0.118390   -0.006522    0.021319    0.258639
11
* Frequency(13)  700.6783
C     1.356504    0.578888    0.019339    0.004107   -0.010796   -0.134195
C     1.169881   -0.797800    0.074206   -0.001202    0.004200    0.047995
N     0.012115   -1.461895    0.135821    0.002392   -0.007158   -0.080962
C    -1.137190   -0.729257    0.006989   -0.001351    0.003014    0.043241
N    -0.986189    0.671181   -0.132533   -0.003918    0.011313    0.136037
C     0.198774    1.420988   -0.133919   -0.000979    0.003661    0.042374
O    -2.278013   -1.195721    0.020738   -0.001160    0.002117    0.023255
O     0.157465    2.653403   -0.231427   -0.000675    0.001962    0.022327
H     2.073624   -1.434402    0.103475   -0.005574    0.017814    0.210898
H    -1.866067    1.254447    0.410246    0.055567   -0.162562   -1.951359
H     2.350365    1.027778   -0.106419   -0.006522    0.021319    0.258639
11
* Frequency(13)  700.6783
C     1.356825    0.578045    0.008867    0.004107   -0.010796   -0.134195
C     1.169787   -0.797472    0.077951   -0.001202    0.004200    0.047995
N     0.012302   -1.462454    0.129503    0.002392   -0.007158   -0.080962
C    -1.137296   -0.729022    0.010363   -0.001351    0.003014    0.043241
N    -0.986495    0.672064   -0.121917   -0.003918    0.011313    0.136037
C     0.198697    1.421273   -0.130612   -0.000979    0.003661    0.042374
O    -2.278103   -1.195555    0.022553   -0.001160    0.002117    0.023255
O     0.157413    2.653556   -0.229685   -0.000675    0.001962    0.022327
H     2.073189   -1.433012    0.119932   -0.005574    0.017814    0.210898
H    -1.861731    1.241761    0.257974    0.055567   -0.162562   -1.951359
H     2.349856    1.029441   -0.086237   -0.006522    0.021319    0.258639
11
* Frequency(13)  700.6783
C     1.357241    0.576951   -0.004731    0.004107   -0.010796   -0.134195
C     1.169665   -0.797047    0.082815   -0.001202    0.004200    0.047995
N     0.012544   -1.463179    0.121299    0.002392   -0.007158   -0.080962
C    -1.137432   -0.728717    0.014745   -0.001351    0.003014    0.043241
N    -0.986892    0.673211   -0.108133   -0.003918    0.011313    0.136037
C     0.198598    1.421644   -0.126318   -0.000979    0.003661    0.042374
O    -2.278221   -1.195341    0.024909   -0.001160    0.002117    0.023255
O     0.157344    2.653755   -0.227423   -0.000675    0.001962    0.022327
H     2.072624   -1.431206    0.141302   -0.005574    0.017814    0.210898
H    -1.856100    1.225289    0.060243    0.055567   -0.162562   -1.951359
H     2.349195    1.031602   -0.060029   -0.006522    0.021319    0.258639
11
* Frequency(13)  700.6783
C     1.357708    0.575724   -0.019982    0.004107   -0.010796   -0.134195
C     1.169529   -0.796569    0.088269   -0.001202    0.004200    0.047995
N     0.012816   -1.463992    0.112098    0.002392   -0.007158   -0.080962
C    -1.137586   -0.728374    0.019659   -0.001351    0.003014    0.043241
N    -0.987337    0.674496   -0.092673   -0.003918    0.011313    0.136037
C     0.198487    1.422060   -0.121503   -0.000979    0.003661    0.042374
O    -2.278352   -1.195100    0.027552   -0.001160    0.002117    0.023255
O     0.157268    2.653978   -0.224886   -0.000675    0.001962    0.022327
H     2.071990   -1.429182    0.165269   -0.005574    0.017814    0.210898
H    -1.849786    1.206815   -0.161518    0.055567   -0.162562   -1.951359
H     2.348454    1.034025   -0.030636   -0.006522    0.021319    0.258639
