11
* (null), Energy   -1000.0000000
C     1.357708    0.575724   -0.019982    0.319179   -0.291802    0.030522
C     1.169529   -0.796569    0.088269    0.901706   -0.569434    0.067056
N     0.012816   -1.463992    0.112098    0.349058   -0.023771    0.019205
C    -1.137586   -0.728374    0.019659   -0.286726   -0.225610   -0.007488
N    -0.987337    0.674496   -0.092673   -0.392570    0.231460   -0.027306
C     0.198487    1.422060   -0.121503   -0.057396    0.319951   -0.020695
O    -2.278352   -1.195100    0.027552   -0.557191   -0.064125   -0.004944
O     0.157268    2.653978   -0.224886   -0.096286    0.494735   -0.046081
H     2.071990   -1.429182    0.165269    0.749404   -0.820785    0.094553
H    -1.849786    1.206815   -0.161518   -0.437125    0.210975   -0.024890
H     2.348454    1.034025   -0.030636    0.217123    0.027208    0.025902
11
* Frequency(16)  802.4045
C     1.393981    0.542563   -0.016513    0.319179   -0.291802    0.030522
C     1.272003   -0.861283    0.095890    0.901706   -0.569434    0.067056
N     0.052485   -1.466694    0.114280    0.349058   -0.023771    0.019205
C    -1.170171   -0.754014    0.018808   -0.286726   -0.225610   -0.007488
N    -1.031951    0.700800   -0.095776   -0.392570    0.231460   -0.027306
C     0.191964    1.458421   -0.123855   -0.057396    0.319951   -0.020695
O    -2.341674   -1.202388    0.026990   -0.557191   -0.064125   -0.004944
O     0.146325    2.710202   -0.230122   -0.096286    0.494735   -0.046081
H     2.157156   -1.522460    0.176015    0.749404   -0.820785    0.094553
H    -1.899463    1.230791   -0.164347   -0.437125    0.210975   -0.024890
H     2.373129    1.037117   -0.027693    0.217123    0.027208    0.025902
11
* Frequency(16)  802.4045
C     1.426323    0.512994   -0.013420    0.319179   -0.291802    0.030522
C     1.363373   -0.918983    0.102684    0.901706   -0.569434    0.067056
N     0.087855   -1.469102    0.116227    0.349058   -0.023771    0.019205
C    -1.199225   -0.776875    0.018049   -0.286726   -0.225610   -0.007488
N    -1.071730    0.724254   -0.098543   -0.392570    0.231460   -0.027306
C     0.186148    1.490842   -0.125952   -0.057396    0.319951   -0.020695
O    -2.398134   -1.208885    0.026489   -0.557191   -0.064125   -0.004944
O     0.136569    2.760333   -0.234792   -0.096286    0.494735   -0.046081
H     2.233093   -1.605630    0.185596    0.749404   -0.820785    0.094553
H    -1.943756    1.252169   -0.166869   -0.437125    0.210975   -0.024890
H     2.395130    1.039873   -0.025068    0.217123    0.027208    0.025902
11
* Frequency(16)  802.4045
C     1.451230    0.490224   -0.011038    0.319179   -0.291802    0.030522
C     1.433736   -0.963418    0.107917    0.901706   -0.569434    0.067056
N     0.115093   -1.470957    0.117725    0.349058   -0.023771    0.019205
C    -1.221599   -0.794480    0.017465   -0.286726   -0.225610   -0.007488
N    -1.102364    0.742316   -0.100674   -0.392570    0.231460   -0.027306
C     0.181669    1.515809   -0.127567   -0.057396    0.319951   -0.020695
O    -2.441614   -1.213889    0.026103   -0.557191   -0.064125   -0.004944
O     0.129055    2.798940   -0.238388   -0.096286    0.494735   -0.046081
H     2.291572   -1.669679    0.192974    0.749404   -0.820785    0.094553
H    -1.977867    1.268632   -0.168811   -0.437125    0.210975   -0.024890
H     2.412073    1.041997   -0.023047    0.217123    0.027208    0.025902
11
* Frequency(16)  802.4045
C     1.466002    0.476719   -0.009626    0.319179   -0.291802    0.030522
C     1.475469   -0.989773    0.111020    0.901706   -0.569434    0.067056
N     0.131248   -1.472057    0.118614    0.349058   -0.023771    0.019205
C    -1.234869   -0.804922    0.017118   -0.286726   -0.225610   -0.007488
N    -1.120532    0.753028   -0.101937   -0.392570    0.231460   -0.027306
C     0.179013    1.530617   -0.128524   -0.057396    0.319951   -0.020695
O    -2.467402   -1.216857    0.025874   -0.557191   -0.064125   -0.004944
O     0.124599    2.821837   -0.240520   -0.096286    0.494735   -0.046081
H     2.326256   -1.707666    0.197350    0.749404   -0.820785    0.094553
H    -1.998098    1.278396   -0.169963   -0.437125    0.210975   -0.024890
H     2.422122    1.043256   -0.021848    0.217123    0.027208    0.025902
11
* Frequency(16)  802.4045
C     1.469039    0.473943   -0.009335    0.319179   -0.291802    0.030522
C     1.484048   -0.995191    0.111658    0.901706   -0.569434    0.067056
N     0.134569   -1.472284    0.118797    0.349058   -0.023771    0.019205
C    -1.237597   -0.807068    0.017047   -0.286726   -0.225610   -0.007488
N    -1.124267    0.755231   -0.102197   -0.392570    0.231460   -0.027306
C     0.178467    1.533661   -0.128721   -0.057396    0.319951   -0.020695
O    -2.472703   -1.217467    0.025827   -0.557191   -0.064125   -0.004944
O     0.123683    2.826544   -0.240959   -0.096286    0.494735   -0.046081
H     2.333386   -1.715476    0.198250    0.749404   -0.820785    0.094553
H    -2.002257    1.280404   -0.170200   -0.437125    0.210975   -0.024890
H     2.424188    1.043515   -0.021602    0.217123    0.027208    0.025902
11
* Frequency(16)  802.4045
C     1.460011    0.482196   -0.010199    0.319179   -0.291802    0.030522
C     1.458544   -0.979085    0.109762    0.901706   -0.569434    0.067056
N     0.124696   -1.471611    0.118254    0.349058   -0.023771    0.019205
C    -1.229487   -0.800687    0.017259   -0.286726   -0.225610   -0.007488
N    -1.113164    0.748684   -0.101425   -0.392570    0.231460   -0.027306
C     0.180090    1.524611   -0.128136   -0.057396    0.319951   -0.020695
O    -2.456944   -1.215654    0.025967   -0.557191   -0.064125   -0.004944
O     0.126406    2.812551   -0.239655   -0.096286    0.494735   -0.046081
H     2.312190   -1.692261    0.195576    0.749404   -0.820785    0.094553
H    -1.989893    1.274437   -0.169496   -0.437125    0.210975   -0.024890
H     2.418047    1.042745   -0.022334    0.217123    0.027208    0.025902
11
* Frequency(16)  802.4045
C     1.439898    0.500584   -0.012122    0.319179   -0.291802    0.030522
C     1.401721   -0.943201    0.105536    0.901706   -0.569434    0.067056
N     0.102700   -1.470113    0.117043    0.349058   -0.023771    0.019205
C    -1.211419   -0.786470    0.017731   -0.286726   -0.225610   -0.007488
N    -1.088425    0.734098   -0.099704   -0.392570    0.231460   -0.027306
C     0.183707    1.504449   -0.126832   -0.057396    0.319951   -0.020695
O    -2.421831   -1.211613    0.026279   -0.557191   -0.064125   -0.004944
O     0.132474    2.781374   -0.236752   -0.096286    0.494735   -0.046081
H     2.264965   -1.640537    0.189617    0.749404   -0.820785    0.094553
H    -1.962347    1.261141   -0.167928   -0.437125    0.210975   -0.024890
H     2.404364    1.041031   -0.023966    0.217123    0.027208    0.025902
11
* Frequency(16)  802.4045
C     1.410877    0.527115   -0.014897    0.319179   -0.291802    0.030522
C     1.319737   -0.891427    0.099439    0.901706   -0.569434    0.067056
N     0.070963   -1.467952    0.115297    0.349058   -0.023771    0.019205
C    -1.185349   -0.765957    0.018411   -0.286726   -0.225610   -0.007488
N    -1.052732    0.713053   -0.097221   -0.392570    0.231460   -0.027306
C     0.188925    1.475358   -0.124950   -0.057396    0.319951   -0.020695
O    -2.371170   -1.205782    0.026728   -0.557191   -0.064125   -0.004944
O     0.141228    2.736392   -0.232562   -0.096286    0.494735   -0.046081
H     2.196827   -1.565910    0.181020    0.749404   -0.820785    0.094553
H    -1.922602    1.241959   -0.165665   -0.437125    0.210975   -0.024890
H     2.384623    1.038557   -0.026321    0.217123    0.027208    0.025902
11
* Frequency(16)  802.4045
C     1.376095    0.558914   -0.018223    0.319179   -0.291802    0.030522
C     1.221474   -0.829373    0.092132    0.901706   -0.569434    0.067056
N     0.032925   -1.465362    0.113204    0.349058   -0.023771    0.019205
C    -1.154104   -0.741371    0.019227   -0.286726   -0.225610   -0.007488
N    -1.009953    0.687830   -0.094246   -0.392570    0.231460   -0.027306
C     0.195180    1.440492   -0.122695   -0.057396    0.319951   -0.020695
O    -2.310451   -1.198794    0.027267   -0.557191   -0.064125   -0.004944
O     0.151721    2.682479   -0.227540   -0.096286    0.494735   -0.046081
H     2.115162   -1.476466    0.170716    0.749404   -0.820785    0.094553
H    -1.874967    1.218968   -0.162952   -0.437125    0.210975   -0.024890
H     2.360962    1.035592   -0.029144    0.217123    0.027208    0.025902
11
* Frequency(16)  802.4045
C     1.339320    0.592534   -0.021740    0.319179   -0.291802    0.030522
C     1.117583   -0.763765    0.084406    0.901706   -0.569434    0.067056
N    -0.007292   -1.462623    0.110992    0.349058   -0.023771    0.019205
C    -1.121068   -0.715377    0.020090   -0.286726   -0.225610   -0.007488
N    -0.964722    0.661162   -0.091100   -0.392570    0.231460   -0.027306
C     0.201793    1.403629   -0.120311   -0.057396    0.319951   -0.020695
O    -2.246254   -1.191406    0.027837   -0.557191   -0.064125   -0.004944
O     0.162814    2.625477   -0.222231   -0.096286    0.494735   -0.046081
H     2.028819   -1.381898    0.159822    0.749404   -0.820785    0.094553
H    -1.824604    1.194661   -0.160085   -0.437125    0.210975   -0.024890
H     2.335946    1.032457   -0.032128    0.217123    0.027208    0.025902
11
* Frequency(16)  802.4045
C     1.304538    0.624333   -0.025066    0.319179   -0.291802    0.030522
C     1.019321   -0.701712    0.077099    0.901706   -0.569434    0.067056
N    -0.045330   -1.460033    0.108899    0.349058   -0.023771    0.019205
C    -1.089823   -0.690792    0.020906   -0.286726   -0.225610   -0.007488
N    -0.921942    0.635939   -0.088124   -0.392570    0.231460   -0.027306
C     0.208048    1.368762   -0.118055   -0.057396    0.319951   -0.020695
O    -2.185535   -1.184418    0.028376   -0.557191   -0.064125   -0.004944
O     0.173307    2.571564   -0.217209   -0.096286    0.494735   -0.046081
H     1.947154   -1.292454    0.149519    0.749404   -0.820785    0.094553
H    -1.776969    1.171670   -0.157372   -0.437125    0.210975   -0.024890
H     2.312285    1.029492   -0.034951    0.217123    0.027208    0.025902
11
* Frequency(16)  802.4045
C     1.275518    0.650864   -0.027841    0.319179   -0.291802    0.030522
C     0.937336   -0.649938    0.071002    0.901706   -0.569434    0.067056
N    -0.077067   -1.457871    0.107153    0.349058   -0.023771    0.019205
C    -1.063753   -0.670279    0.021587   -0.286726   -0.225610   -0.007488
N    -0.886249    0.614894   -0.085641   -0.392570    0.231460   -0.027306
C     0.213266    1.339672   -0.116174   -0.057396    0.319951   -0.020695
O    -2.134874   -1.178588    0.028825   -0.557191   -0.064125   -0.004944
O     0.182061    2.526582   -0.213019   -0.096286    0.494735   -0.046081
H     1.879016   -1.217827    0.140922    0.749404   -0.820785    0.094553
H    -1.737224    1.152488   -0.155109   -0.437125    0.210975   -0.024890
H     2.292544    1.027019   -0.037306    0.217123    0.027208    0.025902
11
* Frequency(16)  802.4045
C     1.255404    0.669253   -0.029765    0.319179   -0.291802    0.030522
C     0.880513   -0.614054    0.066776    0.901706   -0.569434    0.067056
N    -0.099064   -1.456373    0.105942    0.349058   -0.023771    0.019205
C    -1.045684   -0.656061    0.022059   -0.286726   -0.225610   -0.007488
N    -0.861511    0.600308   -0.083921   -0.392570    0.231460   -0.027306
C     0.216883    1.319509   -0.114870   -0.057396    0.319951   -0.020695
O    -2.099761   -1.174547    0.029137   -0.557191   -0.064125   -0.004944
O     0.188129    2.495405   -0.210116   -0.096286    0.494735   -0.046081
H     1.831791   -1.166103    0.134963    0.749404   -0.820785    0.094553
H    -1.709678    1.139193   -0.153541   -0.437125    0.210975   -0.024890
H     2.278861    1.025304   -0.038938    0.217123    0.027208    0.025902
11
* Frequency(16)  802.4045
C     1.246377    0.677506   -0.030628    0.319179   -0.291802    0.030522
C     0.855010   -0.597948    0.064880    0.901706   -0.569434    0.067056
N    -0.108937   -1.455701    0.105399    0.349058   -0.023771    0.019205
C    -1.037575   -0.649680    0.022271   -0.286726   -0.225610   -0.007488
N    -0.850407    0.593762   -0.083148   -0.392570    0.231460   -0.027306
C     0.218506    1.310460   -0.114284   -0.057396    0.319951   -0.020695
O    -2.084002   -1.172733    0.029277   -0.557191   -0.064125   -0.004944
O     0.190853    2.481412   -0.208812   -0.096286    0.494735   -0.046081
H     1.810595   -1.142888    0.132289    0.749404   -0.820785    0.094553
H    -1.697314    1.133225   -0.152837   -0.437125    0.210975   -0.024890
H     2.272720    1.024534   -0.039671    0.217123    0.027208    0.025902
11
* Frequency(16)  802.4045
C     1.249413    0.674730   -0.030337    0.319179   -0.291802    0.030522
C     0.863589   -0.603366    0.065518    0.901706   -0.569434    0.067056
N    -0.105616   -1.455927    0.105582    0.349058   -0.023771    0.019205
C    -1.040303   -0.651827    0.022199   -0.286726   -0.225610   -0.007488
N    -0.854142    0.595964   -0.083408   -0.392570    0.231460   -0.027306
C     0.217960    1.313504   -0.114481   -0.057396    0.319951   -0.020695
O    -2.089303   -1.173343    0.029229   -0.557191   -0.064125   -0.004944
O     0.189936    2.486119   -0.209251   -0.096286    0.494735   -0.046081
H     1.817725   -1.150698    0.133188    0.749404   -0.820785    0.094553
H    -1.701473    1.135233   -0.153073   -0.437125    0.210975   -0.024890
H     2.274786    1.024793   -0.039424    0.217123    0.027208    0.025902
11
* Frequency(16)  802.4045
C     1.264186    0.661225   -0.028925    0.319179   -0.291802    0.030522
C     0.905321   -0.629720    0.068621    0.901706   -0.569434    0.067056
N    -0.089461   -1.457027    0.106471    0.349058   -0.023771    0.019205
C    -1.053573   -0.662268    0.021853   -0.286726   -0.225610   -0.007488
N    -0.872311    0.606676   -0.084672   -0.392570    0.231460   -0.027306
C     0.215304    1.328312   -0.115439   -0.057396    0.319951   -0.020695
O    -2.115091   -1.176311    0.029001   -0.557191   -0.064125   -0.004944
O     0.185480    2.509016   -0.211383   -0.096286    0.494735   -0.046081
H     1.852409   -1.188685    0.137565    0.749404   -0.820785    0.094553
H    -1.721704    1.144997   -0.154225   -0.437125    0.210975   -0.024890
H     2.284835    1.026053   -0.038225    0.217123    0.027208    0.025902
11
* Frequency(16)  802.4045
C     1.289092    0.638454   -0.026543    0.319179   -0.291802    0.030522
C     0.975685   -0.674155    0.073854    0.901706   -0.569434    0.067056
N    -0.062222   -1.458882    0.107969    0.349058   -0.023771    0.019205
C    -1.075947   -0.679874    0.021269   -0.286726   -0.225610   -0.007488
N    -0.902945    0.624738   -0.086803   -0.392570    0.231460   -0.027306
C     0.210825    1.353279   -0.117054   -0.057396    0.319951   -0.020695
O    -2.158570   -1.181315    0.028615   -0.557191   -0.064125   -0.004944
O     0.177967    2.547623   -0.214979   -0.096286    0.494735   -0.046081
H     1.910888   -1.252734    0.144943    0.749404   -0.820785    0.094553
H    -1.755815    1.161460   -0.156168   -0.437125    0.210975   -0.024890
H     2.301778    1.028176   -0.036204    0.217123    0.027208    0.025902
11
* Frequency(16)  802.4045
C     1.321435    0.608886   -0.023450    0.319179   -0.291802    0.030522
C     1.067055   -0.731856    0.080649    0.901706   -0.569434    0.067056
N    -0.026853   -1.461291    0.109915    0.349058   -0.023771    0.019205
C    -1.105001   -0.702735    0.020510   -0.286726   -0.225610   -0.007488
N    -0.942724    0.648192   -0.089570   -0.392570    0.231460   -0.027306
C     0.205009    1.385700   -0.119151   -0.057396    0.319951   -0.020695
O    -2.215030   -1.187813    0.028114   -0.557191   -0.064125   -0.004944
O     0.168210    2.597754   -0.219649   -0.096286    0.494735   -0.046081
H     1.986825   -1.335904    0.154524    0.749404   -0.820785    0.094553
H    -1.800109    1.182838   -0.158690   -0.437125    0.210975   -0.024890
H     2.323779    1.030933   -0.033580    0.217123    0.027208    0.025902
11
* Frequency(16)  802.4045
C     1.357708    0.575724   -0.019982    0.319179   -0.291802    0.030522
C     1.169529   -0.796569    0.088269    0.901706   -0.569434    0.067056
N     0.012816   -1.463992    0.112098    0.349058   -0.023771    0.019205
C    -1.137586   -0.728374    0.019659   -0.286726   -0.225610   -0.007488
N    -0.987337    0.674496   -0.092673   -0.392570    0.231460   -0.027306
C     0.198487    1.422060   -0.121503   -0.057396    0.319951   -0.020695
O    -2.278352   -1.195100    0.027552   -0.557191   -0.064125   -0.004944
O     0.157268    2.653978   -0.224886   -0.096286    0.494735   -0.046081
H     2.071990   -1.429182    0.165269    0.749404   -0.820785    0.094553
H    -1.849786    1.206815   -0.161518   -0.437125    0.210975   -0.024890
H     2.348454    1.034025   -0.030636    0.217123    0.027208    0.025902
