
                                 *****************
                                 * O   R   C   A *
                                 *****************

           --- An Ab Initio, DFT and Semiempirical electronic structure package ---

                  #######################################################
                  #                        -***-                        #
                  #          Department of theory and spectroscopy      #
                  #               Directorship: Frank Neese             #
                  #        Max Planck Institute fuer Kohlenforschung    #
                  #                Kaiser Wilhelm Platz 1               #
                  #                 D-45470 Muelheim/Ruhr               #
                  #                      Germany                        #
                  #                                                     #
                  #                  All rights reserved                #
                  #                        -***-                        #
                  #######################################################


                         Program Version 4.2.1 -  RELEASE  -


 With contributions from (in alphabetic order):
   Daniel Aravena         : Magnetic Suceptibility
   Michael Atanasov       : Ab Initio Ligand Field Theory (pilot matlab implementation)
   Alexander A. Auer      : GIAO ZORA, VPT2
   Ute Becker             : Parallelization
   Giovanni Bistoni       : ED, misc. LED, open-shell LED, HFLD
   Martin Brehm           : Molecular dynamics
   Dmytro Bykov           : SCF Hessian
   Vijay G. Chilkuri      : MRCI spin determinant printing, contributions to CSF-ICE
   Dipayan Datta          : RHF DLPNO-CCSD density
   Achintya Kumar Dutta   : EOM-CC, STEOM-CC
   Dmitry Ganyushin       : Spin-Orbit,Spin-Spin,Magnetic field MRCI
   Miquel Garcia          : C-PCM Hessian, Gaussian charge scheme
   Yang Guo               : DLPNO-NEVPT2, CIM, IAO-localization
   Andreas Hansen         : Spin unrestricted coupled pair/coupled cluster methods
   Benjamin Helmich-Paris : CASSCF linear response (MC-RPA)
   Lee Huntington         : MR-EOM, pCC
   Robert Izsak           : Overlap fitted RIJCOSX, COSX-SCS-MP3, EOM
   Christian Kollmar      : KDIIS, OOCD, Brueckner-CCSD(T), CCSD density
   Simone Kossmann        : Meta GGA functionals, TD-DFT gradient, OOMP2, MP2 Hessian
   Martin Krupicka        : AUTO-CI
   Lucas Lang             : DCDCAS
   Dagmar Lenk            : GEPOL surface, SMD
   Dimitrios Liakos       : Extrapolation schemes; Compound Job, initial MDCI parallelization
   Dimitrios Manganas     : Further ROCIS development; embedding schemes
   Dimitrios Pantazis     : SARC Basis sets
   Taras Petrenko         : DFT Hessian,TD-DFT gradient, ASA, ECA, R-Raman, ABS, FL, XAS/XES, NRVS
   Peter Pinski           : DLPNO-MP2, DLPNO-MP2 Gradient
   Christoph Reimann      : Effective Core Potentials
   Marius Retegan         : Local ZFS, SOC
   Christoph Riplinger    : Optimizer, TS searches, QM/MM, DLPNO-CCSD(T), (RO)-DLPNO pert. Triples
   Tobias Risthaus        : Range-separated hybrids, TD-DFT gradient, RPA, STAB
   Michael Roemelt        : Original ROCIS implementation
   Masaaki Saitow         : Open-shell DLPNO-CCSD energy and density
   Barbara Sandhoefer     : DKH picture change effects
   Avijit Sen             : IP-ROCIS
   Kantharuban Sivalingam : CASSCF convergence, NEVPT2, FIC-MRCI
   Bernardo de Souza      : ESD, SOC TD-DFT
   Georgi Stoychev        : AutoAux, RI-MP2 NMR
   Willem Van den Heuvel  : Paramagnetic NMR
   Boris Wezisla          : Elementary symmetry handling
   Frank Wennmohs         : Technical directorship


 We gratefully acknowledge several colleagues who have allowed us to
 interface, adapt or use parts of their codes:
   Stefan Grimme, W. Hujo, H. Kruse,             : VdW corrections, initial TS optimization,
                  C. Bannwarth                     DFT functionals, gCP, sTDA/sTD-DF
   Ed Valeev, F. Pavosevic, A. Kumar             : LibInt (2-el integral package), F12 methods
   Garnet Chan, S. Sharma, J. Yang, R. Olivares  : DMRG
   Ulf Ekstrom                                   : XCFun DFT Library
   Mihaly Kallay                                 : mrcc  (arbitrary order and MRCC methods)
   Andreas Klamt, Michael Diedenhofen            : otool_cosmo (COSMO solvation model)
   Jiri Pittner, Ondrej Demel                    : Mk-CCSD
   Frank Weinhold                                : gennbo (NPA and NBO analysis)
   Christopher J. Cramer and Donald G. Truhlar   : smd solvation model
   Lars Goerigk                                  : TD-DFT with DH, B97 family of functionals
   V. Asgeirsson, H. Jonsson                     : NEB implementation
   FAccTs GmbH                                   : IRC, NEB, NEB-TS, Multilevel, MM, QM/MM, CI optimization
   S Lehtola, MJT Oliveira, MAL Marques          : LibXC Library


 Your calculation uses the libint2 library for the computation of 2-el integrals
 For citations please refer to: http://libint.valeyev.net

 Your ORCA version has been built with support for libXC version: 4.2.3
 For citations please refer to: https://tddft.org/programs/libxc/

 This ORCA versions uses:
   CBLAS   interface :  Fast vector & matrix operations
   LAPACKE interface :  Fast linear algebra routines


----- Orbital basis set information -----
Your calculation utilizes the basis: def2-SVP
   F. Weigend and R. Ahlrichs, Phys. Chem. Chem. Phys. 7, 3297 (2005).

================================================================================
                                        WARNINGS
                       Please study these warnings very carefully!
================================================================================


WARNING: Geometry Optimization
  ===> : Switching off AutoStart
         For restart on a previous wavefunction, please use MOREAD

INFO   : the flag for use of LIBINT has been found!

================================================================================
                                       INPUT FILE
================================================================================
NAME = Uracil_0.inp
|  1> !B3LYP def2-SVP OPT FREQ CPCM(WATER)

|  2> * xyz 0 1

|  3>    C        1.32473        0.49516       -0.07094

|  4>    C        1.13894       -0.83742        0.03418

|  5>    N       -0.14943       -1.38802        0.10855

|  6>    C       -1.30730       -0.55468        0.07507

|  7>    N       -1.12118        0.84628       -0.03525

|  8>    C        0.18928        1.42125       -0.11192

|  9>    O       -2.42322       -1.05548        0.14114

| 10>    O        0.23983        2.63654       -0.20492

| 11>    H        1.97469       -1.54909        0.06650

| 12>    H       -0.26397       -2.37323        0.18546

| 13>    H       -1.93136        1.43000       -0.05870

| 14>    H        2.32899        0.92869       -0.12920

| 15> *

| 16> 
| 17>                          ****END OF INPUT****
================================================================================

                       *****************************
                       * Geometry Optimization Run *
                       *****************************

Geometry optimization settings:
Update method            Update   .... BFGS
Choice of coordinates    CoordSys .... Z-matrix Internals
Initial Hessian          InHess   .... Almoef's Model

Convergence Tolerances:
Energy Change            TolE     ....  5.0000e-06 Eh
Max. Gradient            TolMAXG  ....  3.0000e-04 Eh/bohr
RMS Gradient             TolRMSG  ....  1.0000e-04 Eh/bohr
Max. Displacement        TolMAXD  ....  4.0000e-03 bohr
RMS Displacement         TolRMSD  ....  2.0000e-03 bohr
Strict Convergence                ....  False
------------------------------------------------------------------------------
                        ORCA OPTIMIZATION COORDINATE SETUP
------------------------------------------------------------------------------

The optimization will be done in new redundant internal coordinates
Making redundant internal coordinates   ...  (new redundants) done
Evaluating the initial hessian          ...  (Almloef) done
Evaluating the coordinates              ...  done
Calculating the B-matrix                .... done
Calculating the G-matrix                .... done
Diagonalizing the G-matrix              .... done
The first mode is                       ....   24
The number of degrees of freedom        ....   30

    -----------------------------------------------------------------
                    Redundant Internal Coordinates


    -----------------------------------------------------------------
         Definition                    Initial Value    Approx d2E/dq
    -----------------------------------------------------------------
      1. B(C   1,C   0)                  1.3496         0.724841   
      2. B(N   2,C   1)                  1.4031         0.533375   
      3. B(C   3,N   2)                  1.4270         0.488534   
      4. B(N   4,C   3)                  1.4176         0.505699   
      5. B(C   5,N   4)                  1.4331         0.477653   
      6. B(C   5,C   0)                  1.4658         0.472939   
      7. B(O   6,C   3)                  1.2249         1.026221   
      8. B(O   7,C   5)                  1.2199         1.045378   
      9. B(H   8,C   1)                  1.0982         0.349441   
     10. B(H   9,N   2)                  0.9948         0.457518   
     11. B(H  10,N   4)                  0.9988         0.450826   
     12. B(H  11,C   0)                  1.0954         0.353039   
     13. A(C   1,C   0,H  11)          121.4094         0.361185   
     14. A(C   1,C   0,C   5)          121.2908         0.425237   
     15. A(C   5,C   0,H  11)          117.2997         0.336112   
     16. A(C   0,C   1,H   8)          122.5076         0.360555   
     17. A(C   0,C   1,N   2)          121.2001         0.431671   
     18. A(N   2,C   1,H   8)          116.2923         0.340258   
     19. A(C   3,N   2,H   9)          119.1265         0.347753   
     20. A(C   1,N   2,C   3)          120.9755         0.399819   
     21. A(C   1,N   2,H   9)          119.8980         0.352948   
     22. A(N   2,C   3,O   6)          119.9461         0.449441   
     23. A(N   2,C   3,N   4)          118.1929         0.396093   
     24. A(N   4,C   3,O   6)          121.8610         0.452269   
     25. A(C   3,N   4,H  10)          118.2217         0.348915   
     26. A(C   3,N   4,C   5)          121.3812         0.394531   
     27. A(C   5,N   4,H  10)          120.3971         0.345580   
     28. A(C   0,C   5,N   4)          116.9595         0.392431   
     29. A(N   4,C   5,O   7)          116.2101         0.449112   
     30. A(C   0,C   5,O   7)          126.8304         0.451286   
     31. D(H   8,C   1,C   0,C   5)    179.9935         0.037230   
     32. D(H   8,C   1,C   0,H  11)      0.0010         0.037230   
     33. D(N   2,C   1,C   0,H  11)    179.9977         0.037230   
     34. D(N   2,C   1,C   0,C   5)     -0.0098         0.037230   
     35. D(H   9,N   2,C   1,C   0)    179.9851         0.022605   
     36. D(C   3,N   2,C   1,C   0)      0.0127         0.022605   
     37. D(C   3,N   2,C   1,H   8)   -179.9903         0.022605   
     38. D(H   9,N   2,C   1,H   8)     -0.0180         0.022605   
     39. D(O   6,C   3,N   2,H   9)      0.0194         0.018843   
     40. D(O   6,C   3,N   2,C   1)    179.9919         0.018843   
     41. D(N   4,C   3,N   2,H   9)   -179.9831         0.018843   
     42. D(N   4,C   3,N   2,C   1)     -0.0106         0.018843   
     43. D(H  10,N   4,C   3,N   2)   -179.9985         0.020233   
     44. D(C   5,N   4,C   3,O   6)   -179.9966         0.020233   
     45. D(C   5,N   4,C   3,N   2)      0.0059         0.020233   
     46. D(H  10,N   4,C   3,O   6)     -0.0010         0.020233   
     47. D(O   7,C   5,N   4,H  10)     -0.0019         0.017995   
     48. D(C   0,C   5,N   4,H  10)   -179.9985         0.017995   
     49. D(C   0,C   5,N   4,C   3)     -0.0030         0.017995   
     50. D(O   7,C   5,C   0,H  11)      0.0015         0.015230   
     51. D(O   7,C   5,C   0,C   1)   -179.9914         0.015230   
     52. D(O   7,C   5,N   4,C   3)    179.9936         0.017995   
     53. D(N   4,C   5,C   0,H  11)    179.9977         0.015230   
     54. D(N   4,C   5,C   0,C   1)      0.0049         0.015230   
    -----------------------------------------------------------------

Number of atoms                         .... 12
Number of degrees of freedom            .... 54

         *************************************************************
         *                GEOMETRY OPTIMIZATION CYCLE   1            *
         *************************************************************
---------------------------------
CARTESIAN COORDINATES (ANGSTROEM)
---------------------------------
  C      1.324730    0.495160   -0.070940
  C      1.138940   -0.837420    0.034180
  N     -0.149430   -1.388020    0.108550
  C     -1.307300   -0.554680    0.075070
  N     -1.121180    0.846280   -0.035250
  C      0.189280    1.421250   -0.111920
  O     -2.423220   -1.055480    0.141140
  O      0.239830    2.636540   -0.204920
  H      1.974690   -1.549090    0.066500
  H     -0.263970   -2.373230    0.185460
  H     -1.931360    1.430000   -0.058700
  H      2.328990    0.928690   -0.129200

----------------------------
CARTESIAN COORDINATES (A.U.)
----------------------------
  NO LB      ZA    FRAG     MASS         X           Y           Z
   0 C     6.0000    0    12.011    2.503377    0.935717   -0.134057
   1 C     6.0000    0    12.011    2.152285   -1.582494    0.064591
   2 N     7.0000    0    14.007   -0.282382   -2.622978    0.205130
   3 C     6.0000    0    12.011   -2.470439   -1.048193    0.141862
   4 N     7.0000    0    14.007   -2.118723    1.599237   -0.066613
   5 C     6.0000    0    12.011    0.357687    2.685773   -0.211498
   6 O     8.0000    0    15.999   -4.579222   -1.994568    0.266716
   7 O     8.0000    0    15.999    0.453213    4.982339   -0.387243
   8 H     1.0000    0     1.008    3.731623   -2.927356    0.125667
   9 H     1.0000    0     1.008   -0.498831   -4.484755    0.350469
  10 H     1.0000    0     1.008   -3.649741    2.702308   -0.110927
  11 H     1.0000    0     1.008    4.401153    1.754970   -0.244153

--------------------------------
INTERNAL COORDINATES (ANGSTROEM)
--------------------------------
 C      0   0   0     0.000000000000     0.00000000     0.00000000
 C      1   0   0     1.349569410923     0.00000000     0.00000000
 N      2   1   0     1.403063973524   121.20006196     0.00000000
 C      3   2   1     1.426968606137   120.97549059     0.00000000
 N      4   3   2     1.417568368157   118.19289712     0.00000000
 C      5   4   3     1.433099508548   121.38121195     0.00000000
 O      4   3   2     1.224925847266   119.94612470   179.99189921
 O      6   5   4     1.219891014230   116.21014351   179.99363208
 H      2   1   3     1.098178871496   122.50760068   180.00327188
 H      3   2   1     0.994823252543   119.89795461   179.98508457
 H      5   4   3     0.998834607580   118.22168911   180.00150113
 H      1   2   3     1.095390631738   121.40942987   179.99770913

---------------------------
INTERNAL COORDINATES (A.U.)
---------------------------
 C      0   0   0     0.000000000000     0.00000000     0.00000000
 C      1   0   0     2.550316585363     0.00000000     0.00000000
 N      2   1   0     2.651406658331   121.20006196     0.00000000
 C      3   2   1     2.696579867302   120.97549059     0.00000000
 N      4   3   2     2.678815991927   118.19289712     0.00000000
 C      5   4   3     2.708165593813   121.38121195     0.00000000
 O      4   3   2     2.314774385694   119.94612470   179.99189921
 O      6   5   4     2.305259930127   116.21014351   179.99363208
 H      2   1   3     2.075257313186   122.50760068   180.00327188
 H      3   2   1     1.879943498963   119.89795461   179.98508457
 H      5   4   3     1.887523861409   118.22168911   180.00150113
 H      1   2   3     2.069988303648   121.40942987   179.99770913

---------------------
BASIS SET INFORMATION
---------------------
There are 4 groups of distinct atoms

 Group   1 Type C   : 7s4p1d contracted to 3s2p1d pattern {511/31/1}
 Group   2 Type N   : 7s4p1d contracted to 3s2p1d pattern {511/31/1}
 Group   3 Type O   : 7s4p1d contracted to 3s2p1d pattern {511/31/1}
 Group   4 Type H   : 4s1p contracted to 2s1p pattern {31/1}

Atom   0C    basis set group =>   1
Atom   1C    basis set group =>   1
Atom   2N    basis set group =>   2
Atom   3C    basis set group =>   1
Atom   4N    basis set group =>   2
Atom   5C    basis set group =>   1
Atom   6O    basis set group =>   3
Atom   7O    basis set group =>   3
Atom   8H    basis set group =>   4
Atom   9H    basis set group =>   4
Atom  10H    basis set group =>   4
Atom  11H    basis set group =>   4
------------------------------------------------------------------------------
                           ORCA GTO INTEGRAL CALCULATION
------------------------------------------------------------------------------

                         BASIS SET STATISTICS AND STARTUP INFO

 # of primitive gaussian shells          ...  116
 # of primitive gaussian functions       ...  220
 # of contracted shells                  ...   60
 # of contracted basis functions         ...  132
 Highest angular momentum                ...    2
 Maximum contraction depth               ...    5
 Integral package used                   ... LIBINT
 Integral threshhold            Thresh   ...  2.500e-11
 Primitive cut-off              TCut     ...  2.500e-12


------------------------------ INTEGRAL EVALUATION ----------------------------


 * One electron integrals 
 Pre-screening matrix                    ... done
 Shell pair data                         ... done (   0.001 sec)

Timings:
 Total evaluation time               ...     0.001 sec (   0.000 min)
 One electron matrix time            ...     0.008 sec (   0.000 min) =800.0%
 Schwartz matrix evaluation time     ...     0.081 sec (   0.001 min) =8100.0%

-------------------------------------------------------------------------------
                                 ORCA SCF
-------------------------------------------------------------------------------

------------
SCF SETTINGS
------------
Hamiltonian:
 Density Functional     Method          .... DFT(GTOs)
 Exchange Functional    Exchange        .... B88
   X-Alpha parameter    XAlpha          ....  0.666667
   Becke's b parameter  XBeta           ....  0.004200
 Correlation Functional Correlation     .... LYP
 LDA part of GGA corr.  LDAOpt          .... VWN-5
 Gradients option       PostSCFGGA      .... off
 Hybrid DFT is turned on
   Fraction HF Exchange ScalHFX         ....  0.200000
   Scaling of DF-GGA-X  ScalDFX         ....  0.720000
   Scaling of DF-GGA-C  ScalDFC         ....  0.810000
   Scaling of DF-LDA-C  ScalLDAC        ....  1.000000
   Perturbative correction              ....  0.000000
   Density functional embedding theory  .... OFF
   NL short-range parameter             ....  4.800000


General Settings:
 Integral files         IntName         .... Uracil_0
 Hartree-Fock type      HFTyp           .... RHF
 Total Charge           Charge          ....    0
 Multiplicity           Mult            ....    1
 Number of Electrons    NEL             ....   58
 Basis Dimension        Dim             ....  132
 Nuclear Repulsion      ENuc            ....    352.5366130217 Eh

Convergence Acceleration:
 DIIS                   CNVDIIS         .... on
   Start iteration      DIISMaxIt       ....    12
   Startup error        DIISStart       ....  0.200000
   # of expansion vecs  DIISMaxEq       ....     5
   Bias factor          DIISBfac        ....   1.050
   Max. coefficient     DIISMaxC        ....  10.000
 Newton-Raphson         CNVNR           .... off
 SOSCF                  CNVSOSCF        .... on
   Start iteration      SOSCFMaxIt      ....   150
   Startup grad/error   SOSCFStart      ....  0.003300
 Level Shifting         CNVShift        .... on
   Level shift para.    LevelShift      ....    0.2500
   Turn off err/grad.   ShiftErr        ....    0.0010
 Zerner damping         CNVZerner       .... off
 Static damping         CNVDamp         .... on
   Fraction old density DampFac         ....    0.7000
   Max. Damping (<1)    DampMax         ....    0.9800
   Min. Damping (>=0)   DampMin         ....    0.0000
   Turn off err/grad.   DampErr         ....    0.1000
 Fernandez-Rico         CNVRico         .... off

SCF Procedure:
 Maximum # iterations   MaxIter         ....   125
 SCF integral mode      SCFMode         .... Direct
   Integral package                     .... LIBINT
 Reset frequency        DirectResetFreq ....    20
 Integral Threshold     Thresh          ....  2.500e-11 Eh
 Primitive CutOff       TCut            ....  2.500e-12 Eh

Convergence Tolerance:
 Convergence Check Mode ConvCheckMode   .... Total+1el-Energy
 Convergence forced     ConvForced      .... 0
 Energy Change          TolE            ....  1.000e-08 Eh
 1-El. energy change                    ....  1.000e-05 Eh
 Orbital Gradient       TolG            ....  1.000e-05
 Orbital Rotation angle TolX            ....  1.000e-05
 DIIS Error             TolErr          ....  5.000e-07


Diagonalization of the overlap matrix:
Smallest eigenvalue                        ... 1.299e-03
Time for diagonalization                   ...    0.003 sec
Threshold for overlap eigenvalues          ... 1.000e-08
Number of eigenvalues below threshold      ... 0
Time for construction of square roots      ...    0.001 sec
Total time needed                          ...    0.004 sec

-------------------
DFT GRID GENERATION
-------------------

General Integration Accuracy     IntAcc      ...  4.340
Radial Grid Type                 RadialGrid  ... Gauss-Chebyshev
Angular Grid (max. acc.)         AngularGrid ... Lebedev-110
Angular grid pruning method      GridPruning ... 3 (G Style)
Weight generation scheme         WeightScheme... Becke
Basis function cutoff            BFCut       ...    1.0000e-11
Integration weight cutoff        WCut        ...    1.0000e-14
Grids for H and He will be reduced by one unit

# of grid points (after initial pruning)     ...  16636 (   0.0 sec)
# of grid points (after weights+screening)   ...  15671 (   0.0 sec)
nearest neighbour list constructed           ...    0.0 sec
Grid point re-assignment to atoms done       ...    0.0 sec
Grid point division into batches done        ...    0.0 sec
Reduced shell lists constructed in    0.1 sec

Total number of grid points                  ...    15671
Total number of batches                      ...      251
Average number of points per batch           ...       62
Average number of grid points per atom       ...     1306
Average number of shells per batch           ...    44.20 (73.67%)
Average number of basis functions per batch  ...    97.77 (74.07%)
Average number of large shells per batch     ...    35.56 (80.46%)
Average number of large basis fcns per batch ...    77.11 (78.87%)
Maximum spatial batch extension              ...  16.75, 20.59, 22.00 au
Average spatial batch extension              ...   3.68,  3.66,  4.87 au

Time for grid setup =    0.076 sec

------------------------------
INITIAL GUESS: MODEL POTENTIAL
------------------------------
Loading Hartree-Fock densities                     ... done
Calculating cut-offs                               ... done
Setting up the integral package                    ... done
Initializing the effective Hamiltonian             ... done
Starting the Coulomb interaction                   ... done (   0.0 sec)
Reading the grid                                   ... done
Mapping shells                                     ... done
Starting the XC term evaluation                    ... done (   0.1 sec)
  promolecular density results
     # of electrons  =     57.998727913
     EX              =    -51.282174059
     EC              =     -2.024863117
     EX+EC           =    -53.307037175
Transforming the Hamiltonian                       ... done (   0.0 sec)
Diagonalizing the Hamiltonian                      ... done (   0.0 sec)
Back transforming the eigenvectors                 ... done (   0.0 sec)
Now organizing SCF variables                       ... done
                      ------------------
                      INITIAL GUESS DONE (   0.3 sec)
                      ------------------

--------------------
CPCM SOLVATION MODEL
--------------------
CPCM parameters:
  Epsilon                                         ...      80.4000
  Refrac                                          ...       1.3300
  Rsolv                                           ...       1.3000
  Surface type                                    ...    GEPOL SES
  Epsilon function type                           ...         CPCM
Radii:
 Radius for C  used is    3.7795 Bohr (=   2.0000 Ang.)
 Radius for N  used is    3.4582 Bohr (=   1.8300 Ang.)
 Radius for O  used is    3.2503 Bohr (=   1.7200 Ang.)
 Radius for H  used is    2.4566 Bohr (=   1.3000 Ang.)
Calculating surface                               ...        done! (  0.0s)
GEPOL surface points                              ...          390
GEPOL Volume                                      ...     809.3092
GEPOL Surface-area                                ...     483.5753
Calculating surface distance matrix               ...        done! (  0.0s)
Performing Cholesky decomposition & store         ...        done! (  0.0s)
Overall time for CPCM initialization              ...                 0.0s
--------------
SCF ITERATIONS
--------------
ITER       Energy         Delta-E        Max-DP      RMS-DP      [F,P]     Damp
               ***  Starting incremental Fock matrix formation  ***
  0   -414.0494180787   0.000000000000 0.13303776  0.00399566  0.2838461 0.7000
  1   -414.1810000568  -0.131581978086 0.08200820  0.00244409  0.1122400 0.7000
                               ***Turning on DIIS***
  2   -414.2246067575  -0.043606700700 0.07488267  0.00306657  0.0404712 0.0000
  3   -414.3045215543  -0.079914796836 0.06346729  0.00172012  0.0569916 0.0000
  4   -414.3172438320  -0.012722277692 0.01038089  0.00040958  0.0146997 0.0000
                      *** Initiating the SOSCF procedure ***
                           *** Shutting down DIIS ***
                      *** Re-Reading the Fockian *** 
                      *** Removing any level shift *** 
ITER      Energy       Delta-E        Grad      Rot      Max-DP    RMS-DP
  5   -414.31847268  -0.0012288452  0.000832  0.000832  0.003633  0.000124
               *** Restarting incremental Fock matrix formation ***
  6   -414.31851366  -0.0000409789  0.000684  0.002102  0.003535  0.000092
  7   -414.31849755   0.0000161042  0.001147  0.001483  0.002152  0.000058
  8   -414.31852321  -0.0000256543  0.000155  0.000336  0.000606  0.000020
  9   -414.31852262   0.0000005886  0.000209  0.000219  0.000349  0.000012
 10   -414.31852364  -0.0000010206  0.000010  0.000047  0.000052  0.000002
 11   -414.31852363   0.0000000035  0.000015  0.000028  0.000035  0.000001
                  ***Gradient check signals convergence***
              ***Rediagonalizing the Fockian in SOSCF/NRSCF***

               *****************************************************
               *                     SUCCESS                       *
               *           SCF CONVERGED AFTER  12 CYCLES          *
               *****************************************************

Setting up the final grid:

General Integration Accuracy     IntAcc      ...  4.670
Radial Grid Type                 RadialGrid  ... Gauss-Chebyshev
Angular Grid (max. acc.)         AngularGrid ... Lebedev-302
Angular grid pruning method      GridPruning ... 3 (G Style)
Weight generation scheme         WeightScheme... Becke
Basis function cutoff            BFCut       ...    1.0000e-11
Integration weight cutoff        WCut        ...    1.0000e-14
Grids for H and He will be reduced by one unit

# of grid points (after initial pruning)     ...  63272 (   0.0 sec)
# of grid points (after weights+screening)   ...  58861 (   0.2 sec)
nearest neighbour list constructed           ...    0.0 sec
Grid point re-assignment to atoms done       ...    0.0 sec
Grid point division into batches done        ...    0.5 sec
Reduced shell lists constructed in    1.0 sec

Total number of grid points                  ...    58861
Total number of batches                      ...      925
Average number of points per batch           ...       63
Average number of grid points per atom       ...     4905
Average number of shells per batch           ...    40.42 (67.37%)
Average number of basis functions per batch  ...    88.72 (67.21%)
Average number of large shells per batch     ...    31.78 (78.62%)
Average number of large basis fcns per batch ...    68.37 (77.06%)
Maximum spatial batch extension              ...  18.76, 19.38, 24.37 au
Average spatial batch extension              ...   2.54,  2.54,  2.92 au

Final grid set up in    1.2 sec
Final integration                            ... done (   1.1 sec)
Change in XC energy                          ...    -0.000020981
Integrated number of electrons               ...    57.999997168
Previous integrated no of electrons          ...    58.001541777

----------------
TOTAL SCF ENERGY
----------------

Total Energy       :         -414.31854462 Eh          -11274.18077 eV

Components:
Nuclear Repulsion  :          352.53661302 Eh            9593.00894 eV
Electronic Energy  :         -766.85515764 Eh          -20867.18971 eV
One Electron Energy:        -1262.44892692 Eh          -34352.98177 eV
Two Electron Energy:          495.59376928 Eh           13485.79207 eV
CPCM Dielectric    :           -0.02714547 Eh              -0.73867 eV

Virial components:
Potential Energy   :         -824.78449876 Eh          -22443.52722 eV
Kinetic Energy     :          410.46595413 Eh           11169.34645 eV
Virial Ratio       :            2.00938590


DFT components:
N(Alpha)           :       28.999998583852 electrons
N(Beta)            :       28.999998583852 electrons
N(Total)           :       57.999997167704 electrons
E(X)               :      -41.202658833921 Eh       
E(C)               :       -2.385698027789 Eh       
E(XC)              :      -43.588356861709 Eh       
DFET-embed. en.    :        0.000000000000 Eh       
CPCM Solvation Model Properties:
Surface-charge          :           -0.01345253
Charge-correction       :            0.00000262 Eh               0.00007 eV
Free-energy (cav+disp)  :            0.00356479 Eh               0.09700 eV
Corrected G(solv)       :         -414.31497721 Eh          -11274.08369 eV

---------------
SCF CONVERGENCE
---------------

  Last Energy change         ...   -6.6677e-09  Tolerance :   1.0000e-08
  Last MAX-Density change    ...    6.9422e-06  Tolerance :   1.0000e-07
  Last RMS-Density change    ...    2.3804e-07  Tolerance :   5.0000e-09
  Last Orbital Gradient      ...    1.3370e-06  Tolerance :   1.0000e-05
  Last Orbital Rotation      ...    4.0582e-06  Tolerance :   1.0000e-05

             **** THE GBW FILE WAS UPDATED (Uracil_0.gbw) ****
             **** DENSITY FILE WAS UPDATED (Uracil_0.scfp) ****
             **** ENERGY FILE WAS UPDATED (Uracil_0.en.tmp) ****
             **** THE GBW FILE WAS UPDATED (Uracil_0.gbw) ****
             **** DENSITY FILE WAS UPDATED (Uracil_0.scfp) ****
----------------
ORBITAL ENERGIES
----------------

  NO   OCC          E(Eh)            E(eV) 
   0   2.0000     -19.117051      -520.2014 
   1   2.0000     -19.112445      -520.0761 
   2   2.0000     -14.386857      -391.4863 
   3   2.0000     -14.376528      -391.2052 
   4   2.0000     -10.340380      -281.3760 
   5   2.0000     -10.306062      -280.4422 
   6   2.0000     -10.259074      -279.1636 
   7   2.0000     -10.197023      -277.4751 
   8   2.0000      -1.056885       -28.7593 
   9   2.0000      -1.033566       -28.1248 
  10   2.0000      -0.949784       -25.8449 
  11   2.0000      -0.904665       -24.6172 
  12   2.0000      -0.778808       -21.1924 
  13   2.0000      -0.671158       -18.2631 
  14   2.0000      -0.639517       -17.4021 
  15   2.0000      -0.583135       -15.8679 
  16   2.0000      -0.552816       -15.0429 
  17   2.0000      -0.516722       -14.0607 
  18   2.0000      -0.468268       -12.7422 
  19   2.0000      -0.467933       -12.7331 
  20   2.0000      -0.446634       -12.1535 
  21   2.0000      -0.422995       -11.5103 
  22   2.0000      -0.414662       -11.2835 
  23   2.0000      -0.405888       -11.0448 
  24   2.0000      -0.359445        -9.7810 
  25   2.0000      -0.297960        -8.1079 
  26   2.0000      -0.286592        -7.7986 
  27   2.0000      -0.269450        -7.3321 
  28   2.0000      -0.247747        -6.7415 
  29   0.0000      -0.041647        -1.1333 
  30   0.0000       0.007807         0.2124 
  31   0.0000       0.066032         1.7968 
  32   0.0000       0.097573         2.6551 
  33   0.0000       0.108808         2.9608 
  34   0.0000       0.111359         3.0302 
  35   0.0000       0.142032         3.8649 
  36   0.0000       0.193712         5.2712 
  37   0.0000       0.200783         5.4636 
  38   0.0000       0.217154         5.9091 
  39   0.0000       0.240485         6.5439 
  40   0.0000       0.269868         7.3435 
  41   0.0000       0.308312         8.3896 
  42   0.0000       0.316331         8.6078 
  43   0.0000       0.395530        10.7629 
  44   0.0000       0.402784        10.9603 
  45   0.0000       0.425245        11.5715 
  46   0.0000       0.429640        11.6911 
  47   0.0000       0.476384        12.9631 
  48   0.0000       0.491378        13.3711 
  49   0.0000       0.519398        14.1335 
  50   0.0000       0.529595        14.4110 
  51   0.0000       0.534170        14.5355 
  52   0.0000       0.598799        16.2942 
  53   0.0000       0.600623        16.3438 
  54   0.0000       0.610937        16.6244 
  55   0.0000       0.641443        17.4545 
  56   0.0000       0.664394        18.0791 
  57   0.0000       0.691019        18.8036 
  58   0.0000       0.727499        19.7962 
  59   0.0000       0.739209        20.1149 
  60   0.0000       0.750223        20.4146 
  61   0.0000       0.776358        21.1258 
  62   0.0000       0.783570        21.3220 
  63   0.0000       0.794507        21.6196 
  64   0.0000       0.847722        23.0677 
  65   0.0000       0.871877        23.7250 
  66   0.0000       0.957445        26.0534 
  67   0.0000       1.005136        27.3511 
  68   0.0000       1.016743        27.6670 
  69   0.0000       1.020146        27.7596 
  70   0.0000       1.060400        28.8550 
  71   0.0000       1.082098        29.4454 
  72   0.0000       1.107632        30.1402 
  73   0.0000       1.179036        32.0832 
  74   0.0000       1.206834        32.8396 
  75   0.0000       1.254660        34.1410 
  76   0.0000       1.263979        34.3946 
  77   0.0000       1.271099        34.5884 
  78   0.0000       1.297182        35.2981 
  79   0.0000       1.311729        35.6940 
  80   0.0000       1.316809        35.8322 
  81   0.0000       1.430875        38.9361 
  82   0.0000       1.431698        38.9585 
  83   0.0000       1.496264        40.7154 
  84   0.0000       1.513308        41.1792 
  85   0.0000       1.517214        41.2855 
  86   0.0000       1.676355        45.6159 
  87   0.0000       1.701904        46.3112 
  88   0.0000       1.715426        46.6791 
  89   0.0000       1.759325        47.8737 
  90   0.0000       1.821304        49.5602 
  91   0.0000       1.824758        49.6542 
  92   0.0000       1.827341        49.7245 
  93   0.0000       1.846149        50.2363 
  94   0.0000       1.850556        50.3562 
  95   0.0000       1.885622        51.3104 
  96   0.0000       1.964813        53.4653 
  97   0.0000       1.972497        53.6744 
  98   0.0000       1.999194        54.4008 
  99   0.0000       2.045027        55.6480 
 100   0.0000       2.100211        57.1497 
 101   0.0000       2.122913        57.7674 
 102   0.0000       2.177117        59.2424 
 103   0.0000       2.213472        60.2316 
 104   0.0000       2.235404        60.8284 
 105   0.0000       2.353770        64.0493 
 106   0.0000       2.431264        66.1580 
 107   0.0000       2.431911        66.1757 
 108   0.0000       2.447390        66.5969 
 109   0.0000       2.515907        68.4613 
 110   0.0000       2.566396        69.8352 
 111   0.0000       2.594327        70.5952 
 112   0.0000       2.611746        71.0692 
 113   0.0000       2.658300        72.3360 
 114   0.0000       2.702417        73.5365 
 115   0.0000       2.711180        73.7750 
 116   0.0000       2.720957        74.0410 
 117   0.0000       2.745382        74.7056 
 118   0.0000       2.811502        76.5049 
 119   0.0000       2.814829        76.5954 
 120   0.0000       2.849807        77.5472 
 121   0.0000       2.960689        80.5644 
 122   0.0000       3.046521        82.9000 
 123   0.0000       3.123038        84.9822 
 124   0.0000       3.125694        85.0545 
 125   0.0000       3.163056        86.0711 
 126   0.0000       3.237057        88.0848 
 127   0.0000       3.410193        92.7961 
 128   0.0000       3.474442        94.5444 
 129   0.0000       3.579144        97.3935 
 130   0.0000       3.602838        98.0382 
 131   0.0000       3.730838       101.5213 

                    ********************************
                    * MULLIKEN POPULATION ANALYSIS *
                    ********************************

-----------------------
MULLIKEN ATOMIC CHARGES
-----------------------
   0 C :   -0.135656
   1 C :    0.157829
   2 N :   -0.122006
   3 C :    0.193953
   4 N :   -0.134907
   5 C :    0.176345
   6 O :   -0.291537
   7 O :   -0.289513
   8 H :    0.073167
   9 H :    0.176320
  10 H :    0.162174
  11 H :    0.033830
Sum of atomic charges:    0.0000000

--------------------------------
MULLIKEN REDUCED ORBITAL CHARGES
--------------------------------
  0 C s       :     3.225172  s :     3.225172
      pz      :     1.118476  p :     2.881977
      px      :     0.901027
      py      :     0.862474
      dz2     :     0.002707  d :     0.028507
      dxz     :     0.001857
      dyz     :     0.004748
      dx2y2   :     0.008531
      dxy     :     0.010664
  1 C s       :     3.095026  s :     3.095026
      pz      :     0.900387  p :     2.696564
      px      :     0.820196
      py      :     0.975980
      dz2     :     0.003837  d :     0.050582
      dxz     :     0.007662
      dyz     :     0.009079
      dx2y2   :     0.013565
      dxy     :     0.016438
  2 N s       :     3.361080  s :     3.361080
      pz      :     1.602096  p :     3.742415
      px      :     1.052983
      py      :     1.087335
      dz2     :     0.001974  d :     0.018512
      dxz     :     0.003217
      dyz     :     0.001079
      dx2y2   :     0.005944
      dxy     :     0.006297
  3 C s       :     3.010421  s :     3.010421
      pz      :     0.854202  p :     2.669613
      px      :     0.881489
      py      :     0.933922
      dz2     :     0.007300  d :     0.126012
      dxz     :     0.024087
      dyz     :     0.015641
      dx2y2   :     0.040213
      dxy     :     0.038772
  4 N s       :     3.382311  s :     3.382311
      pz      :     1.607564  p :     3.736125
      px      :     1.082154
      py      :     1.046407
      dz2     :     0.001984  d :     0.016471
      dxz     :     0.001452
      dyz     :     0.002135
      dx2y2   :     0.005974
      dxy     :     0.004925
  5 C s       :     3.020538  s :     3.020538
      pz      :     0.832010  p :     2.691517
      px      :     0.937461
      py      :     0.922046
      dz2     :     0.006482  d :     0.111600
      dxz     :     0.009362
      dyz     :     0.023791
      dx2y2   :     0.026193
      dxy     :     0.045772
  6 O s       :     3.720478  s :     3.720478
      pz      :     1.487986  p :     4.554166
      px      :     1.390812
      py      :     1.675368
      dz2     :     0.001989  d :     0.016893
      dxz     :     0.004363
      dyz     :     0.000903
      dx2y2   :     0.004662
      dxy     :     0.004975
  7 O s       :     3.709722  s :     3.709722
      pz      :     1.445326  p :     4.562856
      px      :     1.781799
      py      :     1.335732
      dz2     :     0.001981  d :     0.016935
      dxz     :     0.000061
      dyz     :     0.005255
      dx2y2   :     0.006056
      dxy     :     0.003582
  8 H s       :     0.904538  s :     0.904538
      pz      :     0.003689  p :     0.022295
      px      :     0.010208
      py      :     0.008398
  9 H s       :     0.779916  s :     0.779916
      pz      :     0.010927  p :     0.043764
      px      :     0.005902
      py      :     0.026935
 10 H s       :     0.795183  s :     0.795183
      pz      :     0.010239  p :     0.042643
      px      :     0.019537
      py      :     0.012867
 11 H s       :     0.942678  s :     0.942678
      pz      :     0.004968  p :     0.023492
      px      :     0.013513
      py      :     0.005011


                     *******************************
                     * LOEWDIN POPULATION ANALYSIS *
                     *******************************

----------------------
LOEWDIN ATOMIC CHARGES
----------------------
   0 C :   -0.129527
   1 C :    0.099130
   2 N :    0.027994
   3 C :    0.116253
   4 N :    0.001524
   5 C :    0.086205
   6 O :   -0.273523
   7 O :   -0.259030
   8 H :    0.060493
   9 H :    0.111399
  10 H :    0.105369
  11 H :    0.053712

-------------------------------
LOEWDIN REDUCED ORBITAL CHARGES
-------------------------------
  0 C s       :     2.876069  s :     2.876069
      pz      :     1.090578  p :     3.172715
      px      :     1.034193
      py      :     1.047945
      dz2     :     0.007241  d :     0.080742
      dxz     :     0.003355
      dyz     :     0.009678
      dx2y2   :     0.027093
      dxy     :     0.033376
  1 C s       :     2.864859  s :     2.864859
      pz      :     0.892352  p :     2.916382
      px      :     0.944576
      py      :     1.079455
      dz2     :     0.008319  d :     0.119629
      dxz     :     0.015678
      dyz     :     0.018769
      dx2y2   :     0.034751
      dxy     :     0.042112
  2 N s       :     3.058373  s :     3.058373
      pz      :     1.541080  p :     3.864584
      px      :     1.152463
      py      :     1.171041
      dz2     :     0.004116  d :     0.049049
      dxz     :     0.006227
      dyz     :     0.001972
      dx2y2   :     0.018404
      dxy     :     0.018330
  3 C s       :     2.826742  s :     2.826742
      pz      :     0.857443  p :     2.778572
      px      :     0.976646
      py      :     0.944484
      dz2     :     0.015505  d :     0.278433
      dxz     :     0.046180
      dyz     :     0.030671
      dx2y2   :     0.094390
      dxy     :     0.091687
  4 N s       :     3.082914  s :     3.082914
      pz      :     1.543093  p :     3.869564
      px      :     1.173747
      py      :     1.152723
      dz2     :     0.004853  d :     0.045997
      dxz     :     0.002800
      dyz     :     0.004133
      dx2y2   :     0.017730
      dxy     :     0.016481
  5 C s       :     2.849352  s :     2.849352
      pz      :     0.830699  p :     2.811419
      px      :     0.964097
      py      :     1.016623
      dz2     :     0.014542  d :     0.253024
      dxz     :     0.018808
      dyz     :     0.045468
      dx2y2   :     0.064274
      dxy     :     0.109932
  6 O s       :     3.550372  s :     3.550372
      pz      :     1.483223  p :     4.693995
      px      :     1.499950
      py      :     1.710822
      dz2     :     0.004224  d :     0.029156
      dxz     :     0.005563
      dyz     :     0.001153
      dx2y2   :     0.008644
      dxy     :     0.009571
  7 O s       :     3.544208  s :     3.544208
      pz      :     1.441990  p :     4.685654
      px      :     1.785029
      py      :     1.458635
      dz2     :     0.004138  d :     0.029168
      dxz     :     0.000084
      dyz     :     0.006666
      dx2y2   :     0.012597
      dxy     :     0.005683
  8 H s       :     0.871848  s :     0.871848
      pz      :     0.011337  p :     0.067659
      px      :     0.031824
      py      :     0.024499
  9 H s       :     0.759464  s :     0.759464
      pz      :     0.037971  p :     0.129137
      px      :     0.016600
      py      :     0.074565
 10 H s       :     0.766372  s :     0.766372
      pz      :     0.036399  p :     0.128259
      px      :     0.055939
      py      :     0.035921
 11 H s       :     0.876194  s :     0.876194
      pz      :     0.016921  p :     0.070094
      px      :     0.039118
      py      :     0.014055


                      *****************************
                      * MAYER POPULATION ANALYSIS *
                      *****************************

  NA   - Mulliken gross atomic population
  ZA   - Total nuclear charge
  QA   - Mulliken gross atomic charge
  VA   - Mayer's total valence
  BVA  - Mayer's bonded valence
  FA   - Mayer's free valence

  ATOM       NA         ZA         QA         VA         BVA        FA
  0 C      6.1357     6.0000    -0.1357     3.8096     3.8096    -0.0000
  1 C      5.8422     6.0000     0.1578     3.8904     3.8904     0.0000
  2 N      7.1220     7.0000    -0.1220     3.2814     3.2814     0.0000
  3 C      5.8060     6.0000     0.1940     4.3879     4.3879     0.0000
  4 N      7.1349     7.0000    -0.1349     3.1436     3.1436    -0.0000
  5 C      5.8237     6.0000     0.1763     4.2915     4.2915    -0.0000
  6 O      8.2915     8.0000    -0.2915     2.2280     2.2280     0.0000
  7 O      8.2895     8.0000    -0.2895     2.2283     2.2283    -0.0000
  8 H      0.9268     1.0000     0.0732     0.9823     0.9823     0.0000
  9 H      0.8237     1.0000     0.1763     0.9895     0.9895     0.0000
 10 H      0.8378     1.0000     0.1622     1.0121     1.0121     0.0000
 11 H      0.9662     1.0000     0.0338     1.0040     1.0040     0.0000

  Mayer bond orders larger than 0.100000
B(  0-C ,  1-C ) :   1.6492 B(  0-C ,  5-C ) :   1.0704 B(  0-C , 11-H ) :   0.9724 
B(  1-C ,  2-N ) :   1.1673 B(  1-C ,  8-H ) :   0.9566 B(  2-N ,  3-C ) :   1.0770 
B(  2-N ,  9-H ) :   0.9084 B(  3-C ,  4-N ) :   1.1117 B(  3-C ,  6-O ) :   2.0721 
B(  4-N ,  5-C ) :   1.0478 B(  4-N , 10-H ) :   0.8967 B(  5-C ,  7-O ) :   2.0586 


-------
TIMINGS
-------

Total SCF time: 0 days 0 hours 0 min 46 sec 

Total time                  ....      46.930 sec
Sum of individual times     ....      46.683 sec  ( 99.5%)

Fock matrix formation       ....      45.128 sec  ( 96.2%)
  XC integration            ....       4.175 sec  (  9.3% of F)
    Basis function eval.    ....       1.310 sec  ( 31.4% of XC)
    Density eval.           ....       1.119 sec  ( 26.8% of XC)
    XC-Functional eval.     ....       0.236 sec  (  5.7% of XC)
    XC-Potential eval.      ....       1.238 sec  ( 29.7% of XC)
Diagonalization             ....       0.018 sec  (  0.0%)
Density matrix formation    ....       0.002 sec  (  0.0%)
Population analysis         ....       0.013 sec  (  0.0%)
Initial guess               ....       0.175 sec  (  0.4%)
Orbital Transformation      ....       0.000 sec  (  0.0%)
Orbital Orthonormalization  ....       0.000 sec  (  0.0%)
DIIS solution               ....       0.008 sec  (  0.0%)
SOSCF solution              ....       0.022 sec  (  0.0%)
Grid generation             ....       1.317 sec  (  2.8%)

-------------------------   --------------------
FINAL SINGLE POINT ENERGY      -414.318544622592
-------------------------   --------------------

------------------------------------------------------------------------------
                         ORCA SCF GRADIENT CALCULATION
------------------------------------------------------------------------------

Gradient of the Kohn-Sham DFT energy:
Kohn-Sham wavefunction type      ... RKS
Hartree-Fock exchange scaling    ...    0.200
Number of operators              ...    1
Number of atoms                  ...   12
Basis set dimensions             ...  132
Integral neglect threshold       ... 2.5e-11
Integral primitive cutoff        ... 2.5e-12

Nuclear repulsion gradient       ... done
One Electron Gradient            ... done
Pre-screening matrix             ... done
Starting the two electron gradient:
Two electron gradient done
Exchange-correlation gradient    ... done

------------------
CARTESIAN GRADIENT
------------------

   1   C   :    0.002194473   -0.010958811    0.000733543
   2   C   :    0.021657992    0.016091865   -0.001709824
   3   N   :   -0.013736609   -0.065136787    0.005412309
   4   C   :    0.010309941    0.007494936   -0.000849928
   5   N   :   -0.057411315    0.060843084   -0.003187595
   6   C   :    0.027105401   -0.004712614   -0.000274685
   7   O   :   -0.007311039   -0.004846557    0.000513438
   8   O   :   -0.012300502   -0.007115998    0.000852836
   9   H   :    0.004613186   -0.001369631   -0.000063051
  10   H   :    0.007443200    0.018917633   -0.001739830
  11   H   :    0.013480492   -0.010350543    0.000477239
  12   H   :    0.003954780    0.001143422   -0.000164453

Difference to translation invariance:
           :    0.0000000000    0.0000000000   -0.0000000000

Norm of the cartesian gradient     ...    0.1194606820
RMS gradient                       ...    0.0199101137
MAX gradient                       ...    0.0651367869

-------
TIMINGS
-------

Total SCF gradient time            ...        7.312 sec

One electron gradient       ....       0.052 sec  (  0.7%)
Prescreening matrices       ....       0.046 sec  (  0.6%)
Two electron gradient       ....       4.941 sec  ( 67.6%)
XC gradient                 ....       1.854 sec  ( 25.4%)
CPCM gradient               ....       0.312 sec  (  4.3%)
   A-Matrix (El+Nuc)        ....       0.003 sec  (  0.0%)
   Potential                ....       0.309 sec  (  4.2%)
------------------------------------------------------------------------------
                         ORCA GEOMETRY RELAXATION STEP
------------------------------------------------------------------------------

Reading the OPT-File                    .... done
Getting information on internals        .... done
Copying old internal coords+grads       .... done
Making the new internal coordinates     .... (new redundants).... done
Validating the new internal coordinates .... (new redundants).... done
Calculating the B-matrix                .... done
Calculating the G,G- and P matrices     .... done
Transforming gradient to internals      .... done
Projecting the internal gradient        .... done
Number of atoms                         ....  12
Number of internal coordinates          ....  54
Current Energy                          ....  -414.318544623 Eh
Current gradient norm                   ....     0.119460682 Eh/bohr
Maximum allowed component of the step   ....  0.300
Current trust radius                    ....  0.300
Evaluating the initial hessian          ....  (Almloef) done
Projecting the Hessian                  .... done
Forming the augmented Hessian           .... done
Diagonalizing the augmented Hessian     .... done
Last element of RFO vector              ....  0.985905326
Lowest eigenvalues of augmented Hessian:
 -0.013230674  0.016371343  0.017942448  0.018935488  0.019581669
Length of the computed step             ....  0.169695989
The final length of the internal step   ....  0.169695989
Converting the step to cartesian space:
 Initial RMS(Int)=    0.0230926992
Transforming coordinates:
 Iter   0:  RMS(Cart)=    0.0304759129 RMS(Int)=    2.8355963005
 Iter   1:  RMS(Cart)=    0.0006404740 RMS(Int)=    0.0003989351
 Iter   2:  RMS(Cart)=    0.0000144509 RMS(Int)=    0.0000108263
 Iter   3:  RMS(Cart)=    0.0000005920 RMS(Int)=    0.0000003437
 Iter   4:  RMS(Cart)=    0.0000000130 RMS(Int)=    0.0000000094
done
Storing new coordinates                 .... done

                                .--------------------.
          ----------------------|Geometry convergence|-------------------------
          Item                value                   Tolerance       Converged
          ---------------------------------------------------------------------
          RMS gradient        0.0107091766            0.0001000000      NO
          MAX gradient        0.0323632108            0.0003000000      NO
          RMS step            0.0230926992            0.0020000000      NO
          MAX step            0.0657400118            0.0040000000      NO
          ........................................................
          Max(Bonds)      0.0348      Max(Angles)    3.59
          Max(Dihed)        0.09      Max(Improp)    0.00
          ---------------------------------------------------------------------

The optimization has not yet converged - more geometry cycles are needed


    ---------------------------------------------------------------------------
                         Redundant Internal Coordinates
                            (Angstroem and degrees)

        Definition                    Value    dE/dq     Step     New-Value
    ----------------------------------------------------------------------------
     1. B(C   1,C   0)                1.3496 -0.002372  0.0022    1.3517   
     2. B(N   2,C   1)                1.4031  0.025485 -0.0246    1.3784   
     3. B(C   3,N   2)                1.4270  0.032363 -0.0348    1.3922   
     4. B(N   4,C   3)                1.4176  0.027962 -0.0292    1.3884   
     5. B(C   5,N   4)                1.4331  0.014926 -0.0161    1.4170   
     6. B(C   5,C   0)                1.4658  0.013027 -0.0135    1.4523   
     7. B(O   6,C   3)                1.2249  0.008670 -0.0044    1.2205   
     8. B(O   7,C   5)                1.2199 -0.007664  0.0038    1.2237   
     9. B(H   8,C   1)                1.0982  0.004396 -0.0064    1.0918   
    10. B(H   9,N   2)                0.9948 -0.019726  0.0222    1.0170   
    11. B(H  10,N   4)                0.9988 -0.016994  0.0194    1.0182   
    12. B(H  11,C   0)                1.0954  0.004087 -0.0059    1.0895   
    13. A(C   1,C   0,H  11)          121.41 -0.003712    0.45    121.86   
    14. A(C   1,C   0,C   5)          121.29  0.006351   -0.76    120.53   
    15. A(C   5,C   0,H  11)          117.30 -0.002639    0.31    117.61   
    16. A(C   0,C   1,H   8)          122.51 -0.001446    0.22    122.73   
    17. A(C   0,C   1,N   2)          121.20 -0.001172    0.20    121.40   
    18. A(N   2,C   1,H   8)          116.29  0.002618   -0.42    115.87   
    19. A(C   3,N   2,H   9)          119.13  0.010608   -1.53    117.60   
    20. A(C   1,N   2,C   3)          120.98 -0.011415    1.50    122.47   
    21. A(C   1,N   2,H   9)          119.90  0.000807    0.03    119.93   
    22. A(N   2,C   3,O   6)          119.95 -0.009782    1.42    121.37   
    23. A(N   2,C   3,N   4)          118.19  0.016254   -2.42    115.77   
    24. A(N   4,C   3,O   6)          121.86 -0.006472    1.00    122.86   
    25. A(C   3,N   4,H  10)          118.22  0.012392   -1.71    116.51   
    26. A(C   3,N   4,C   5)          121.38 -0.025772    3.59    124.98   
    27. A(C   5,N   4,H  10)          120.40  0.013380   -1.88    118.51   
    28. A(C   0,C   5,N   4)          116.96  0.015754   -2.11    114.85   
    29. A(N   4,C   5,O   7)          116.21 -0.021707    2.76    118.98   
    30. A(C   0,C   5,O   7)          126.83  0.005953   -0.66    126.17   
    31. D(H   8,C   1,C   0,C   5)    179.99 -0.000029    0.04    180.03   
    32. D(H   8,C   1,C   0,H  11)      0.00 -0.000025    0.03      0.03   
    33. D(N   2,C   1,C   0,H  11)    180.00  0.000012   -0.02    179.98   
    34. D(N   2,C   1,C   0,C   5)     -0.01  0.000007   -0.01     -0.02   
    35. D(H   9,N   2,C   1,C   0)    179.99 -0.000057    0.09    180.08   
    36. D(C   3,N   2,C   1,C   0)      0.01  0.000004   -0.01     -0.00   
    37. D(C   3,N   2,C   1,H   8)   -179.99  0.000039   -0.06   -180.05   
    38. D(H   9,N   2,C   1,H   8)     -0.02 -0.000023    0.05      0.03   
    39. D(O   6,C   3,N   2,H   9)      0.02  0.000038   -0.06     -0.04   
    40. D(O   6,C   3,N   2,C   1)    179.99 -0.000026    0.04    180.04   
    41. D(N   4,C   3,N   2,H   9)   -179.98  0.000051   -0.08   -180.07   
    42. D(N   4,C   3,N   2,C   1)     -0.01 -0.000013    0.02      0.01   
    43. D(H  10,N   4,C   3,N   2)   -180.00  0.000011   -0.02   -180.02   
    44. D(C   5,N   4,C   3,O   6)   -180.00  0.000019   -0.03   -180.03   
    45. D(C   5,N   4,C   3,N   2)      0.01  0.000006   -0.01     -0.00   
    46. D(H  10,N   4,C   3,O   6)     -0.00  0.000024   -0.04     -0.04   
    47. D(O   7,C   5,N   4,H  10)     -0.00 -0.000019    0.04      0.03   
    48. D(C   0,C   5,N   4,H  10)   -180.00  0.000003   -0.01   -180.00   
    49. D(C   0,C   5,N   4,C   3)     -0.00  0.000007   -0.01     -0.02   
    50. D(O   7,C   5,C   0,H  11)      0.00  0.000008   -0.02     -0.01   
    51. D(O   7,C   5,C   0,C   1)   -179.99  0.000012   -0.02   -180.01   
    52. D(O   7,C   5,N   4,C   3)    179.99 -0.000014    0.03    180.02   
    53. D(N   4,C   5,C   0,H  11)    180.00 -0.000017    0.03    180.03   
    54. D(N   4,C   5,C   0,C   1)      0.00 -0.000013    0.02      0.03   
    ----------------------------------------------------------------------------

         *************************************************************
         *                GEOMETRY OPTIMIZATION CYCLE   2            *
         *************************************************************
---------------------------------
CARTESIAN COORDINATES (ANGSTROEM)
---------------------------------
  C      1.317836    0.507851   -0.071863
  C      1.117152   -0.824695    0.033318
  N     -0.152694   -1.355847    0.105568
  C     -1.296981   -0.563481    0.075243
  N     -1.081877    0.803917   -0.033170
  C      0.190513    1.422594   -0.112281
  O     -2.412075   -1.055271    0.141254
  O      0.252316    2.641219   -0.205186
  H      1.937364   -1.544449    0.067315
  H     -0.278131   -2.361906    0.185534
  H     -1.911392    1.393930   -0.056578
  H      2.317968    0.936138   -0.129185

----------------------------
CARTESIAN COORDINATES (A.U.)
----------------------------
  NO LB      ZA    FRAG     MASS         X           Y           Z
   0 C     6.0000    0    12.011    2.490349    0.959700   -0.135801
   1 C     6.0000    0    12.011    2.111112   -1.558447    0.062961
   2 N     7.0000    0    14.007   -0.288550   -2.562179    0.199495
   3 C     6.0000    0    12.011   -2.450938   -1.064825    0.142189
   4 N     7.0000    0    14.007   -2.044451    1.519182   -0.062681
   5 C     6.0000    0    12.011    0.360018    2.688314   -0.212181
   6 O     8.0000    0    15.999   -4.558161   -1.994173    0.266931
   7 O     8.0000    0    15.999    0.476809    4.991180   -0.387745
   8 H     1.0000    0     1.008    3.661087   -2.918585    0.127207
   9 H     1.0000    0     1.008   -0.525591   -4.463356    0.350609
  10 H     1.0000    0     1.008   -3.612007    2.634147   -0.106916
  11 H     1.0000    0     1.008    4.380324    1.769044   -0.244125

--------------------------------
INTERNAL COORDINATES (ANGSTROEM)
--------------------------------
 C      0   0   0     0.000000000000     0.00000000     0.00000000
 C      1   0   0     1.351671362407     0.00000000     0.00000000
 N      2   1   0     1.378351659615   121.38339166     0.00000000
 C      3   2   1     1.392175789340   122.46397249     0.00000000
 N      4   3   2     1.388452400411   115.77820114     0.00000000
 C      5   4   3     1.417038435709   124.99094025     0.00000000
 O      4   3   2     1.220512208849   121.36151784   180.03619496
 O      6   5   4     1.223721994641   118.97105358   180.02078132
 H      2   1   3     1.091763980109   122.73888782   180.05309653
 H      3   2   1     1.016997964092   119.93124093   180.07910775
 H      5   4   3     1.018213850399   116.50368751   179.98434541
 H      1   2   3     1.089485701212   121.86601997   179.97966996

---------------------------
INTERNAL COORDINATES (A.U.)
---------------------------
 C      0   0   0     0.000000000000     0.00000000     0.00000000
 C      1   0   0     2.554288698014     0.00000000     0.00000000
 N      2   1   0     2.604707152908   121.38339166     0.00000000
 C      3   2   1     2.630830972128   122.46397249     0.00000000
 N      4   3   2     2.623794786763   115.77820114     0.00000000
 C      5   4   3     2.677814564730   124.99094025     0.00000000
 O      4   3   2     2.306433817832   121.36151784   180.03619496
 O      6   5   4     2.312499433928   118.97105358   180.02078132
 H      2   1   3     2.063134925286   122.73888782   180.05309653
 H      3   2   1     1.921847630890   119.93124093   180.07910775
 H      5   4   3     1.924145323019   116.50368751   179.98434541
 H      1   2   3     2.058829602114   121.86601997   179.97966996


Diagonalization of the overlap matrix:
Smallest eigenvalue                        ... 1.271e-03
Time for diagonalization                   ...    0.002 sec
Threshold for overlap eigenvalues          ... 1.000e-08
Number of eigenvalues below threshold      ... 0
Time for construction of square roots      ...    0.001 sec
Total time needed                          ...    0.003 sec

-------------------
DFT GRID GENERATION
-------------------

General Integration Accuracy     IntAcc      ...  4.340
Radial Grid Type                 RadialGrid  ... Gauss-Chebyshev
Angular Grid (max. acc.)         AngularGrid ... Lebedev-110
Angular grid pruning method      GridPruning ... 3 (G Style)
Weight generation scheme         WeightScheme... Becke
Basis function cutoff            BFCut       ...    1.0000e-11
Integration weight cutoff        WCut        ...    1.0000e-14
Grids for H and He will be reduced by one unit

# of grid points (after initial pruning)     ...  16636 (   0.0 sec)
# of grid points (after weights+screening)   ...  15661 (   0.0 sec)
nearest neighbour list constructed           ...    0.0 sec
Grid point re-assignment to atoms done       ...    0.0 sec
Grid point division into batches done        ...    0.0 sec
Reduced shell lists constructed in    0.1 sec

Total number of grid points                  ...    15661
Total number of batches                      ...      250
Average number of points per batch           ...       62
Average number of grid points per atom       ...     1305
Average number of shells per batch           ...    44.31 (73.84%)
Average number of basis functions per batch  ...    98.10 (74.32%)
Average number of large shells per batch     ...    35.84 (80.90%)
Average number of large basis fcns per batch ...    77.95 (79.46%)
Maximum spatial batch extension              ...  17.10, 20.55, 22.00 au
Average spatial batch extension              ...   3.77,  3.65,  4.78 au

Time for grid setup =    0.081 sec


--------------------
CPCM SOLVATION MODEL
--------------------
CPCM parameters:
  Epsilon                                         ...      80.4000
  Refrac                                          ...       1.3300
  Rsolv                                           ...       1.3000
  Surface type                                    ...    GEPOL SES
  Epsilon function type                           ...         CPCM
Radii:
 Radius for C  used is    3.7795 Bohr (=   2.0000 Ang.)
 Radius for N  used is    3.4582 Bohr (=   1.8300 Ang.)
 Radius for O  used is    3.2503 Bohr (=   1.7200 Ang.)
 Radius for H  used is    2.4566 Bohr (=   1.3000 Ang.)
Calculating surface                               ...        done! (  0.0s)
GEPOL surface points                              ...          394
GEPOL Volume                                      ...     804.3941
GEPOL Surface-area                                ...     479.4690
Calculating surface distance matrix               ...        done! (  0.0s)
Performing Cholesky decomposition & store         ...        done! (  0.0s)
Overall time for CPCM initialization              ...                 0.0s
--------------
SCF ITERATIONS
--------------
ITER       Energy         Delta-E        Max-DP      RMS-DP      [F,P]     Damp
               ***  Starting incremental Fock matrix formation  ***
  0   -414.3251559592   0.000000000000 0.00384039  0.00023895  0.0116470 0.7000
                      *** Initiating the SOSCF procedure ***
                      *** Re-Reading the Fockian *** 
                      *** Removing any level shift *** 
ITER      Energy       Delta-E        Grad      Rot      Max-DP    RMS-DP
  1   -414.32568709  -0.0005311335  0.001396  0.001396  0.010025  0.000670
               *** Restarting incremental Fock matrix formation ***
  2   -414.32695193  -0.0012648350  0.000892  0.003508  0.006880  0.000171
  3   -414.32695941  -0.0000074782  0.001367  0.001694  0.002771  0.000091
  4   -414.32700020  -0.0000407933  0.000512  0.000953  0.001906  0.000069
  5   -414.32699910   0.0000010979  0.000506  0.000628  0.001234  0.000038
  6   -414.32700602  -0.0000069230  0.000075  0.000249  0.000392  0.000010
  7   -414.32700588   0.0000001417  0.000103  0.000142  0.000228  0.000006
  8   -414.32700617  -0.0000002923  0.000012  0.000037  0.000068  0.000002
  9   -414.32700617   0.0000000042  0.000017  0.000024  0.000042  0.000001
                  ***Gradient check signals convergence***
              ***Rediagonalizing the Fockian in SOSCF/NRSCF***

               *****************************************************
               *                     SUCCESS                       *
               *           SCF CONVERGED AFTER  10 CYCLES          *
               *****************************************************

Setting up the final grid:

General Integration Accuracy     IntAcc      ...  4.670
Radial Grid Type                 RadialGrid  ... Gauss-Chebyshev
Angular Grid (max. acc.)         AngularGrid ... Lebedev-302
Angular grid pruning method      GridPruning ... 3 (G Style)
Weight generation scheme         WeightScheme... Becke
Basis function cutoff            BFCut       ...    1.0000e-11
Integration weight cutoff        WCut        ...    1.0000e-14
Grids for H and He will be reduced by one unit

# of grid points (after initial pruning)     ...  63272 (   0.0 sec)
# of grid points (after weights+screening)   ...  58819 (   0.2 sec)
nearest neighbour list constructed           ...    0.0 sec
Grid point re-assignment to atoms done       ...    0.0 sec
Grid point division into batches done        ...    0.5 sec
Reduced shell lists constructed in    1.1 sec

Total number of grid points                  ...    58819
Total number of batches                      ...      926
Average number of points per batch           ...       63
Average number of grid points per atom       ...     4902
Average number of shells per batch           ...    40.56 (67.60%)
Average number of basis functions per batch  ...    89.10 (67.50%)
Average number of large shells per batch     ...    32.00 (78.90%)
Average number of large basis fcns per batch ...    68.93 (77.35%)
Maximum spatial batch extension              ...  18.69, 17.09, 22.72 au
Average spatial batch extension              ...   2.52,  2.50,  2.90 au

Final grid set up in    1.3 sec
Final integration                            ... done (   1.1 sec)
Change in XC energy                          ...     0.000000551
Integrated number of electrons               ...    57.999989652
Previous integrated no of electrons          ...    58.001504375
Total Energy       :         -414.32700563 Eh          -11274.41100 eV
  Last Energy change         ...   -1.1149e-08  Tolerance :   1.0000e-08
  Last MAX-Density change    ...    9.1201e-06  Tolerance :   1.0000e-07
             **** THE GBW FILE WAS UPDATED (Uracil_0.gbw) ****
             **** DENSITY FILE WAS UPDATED (Uracil_0.scfp) ****
             **** ENERGY FILE WAS UPDATED (Uracil_0.en.tmp) ****
             **** THE GBW FILE WAS UPDATED (Uracil_0.gbw) ****
             **** DENSITY FILE WAS UPDATED (Uracil_0.scfp) ****
Total SCF time: 0 days 0 hours 0 min 36 sec 

-------------------------   --------------------
FINAL SINGLE POINT ENERGY      -414.327005631219
-------------------------   --------------------

------------------------------------------------------------------------------
                         ORCA SCF GRADIENT CALCULATION
------------------------------------------------------------------------------

Gradient of the Kohn-Sham DFT energy:
Kohn-Sham wavefunction type      ... RKS
Hartree-Fock exchange scaling    ...    0.200
Number of operators              ...    1
Number of atoms                  ...   12
Basis set dimensions             ...  132
Integral neglect threshold       ... 2.5e-11
Integral primitive cutoff        ... 2.5e-12

Nuclear repulsion gradient       ... done
One Electron Gradient            ... done
Pre-screening matrix             ... done
Starting the two electron gradient:
Two electron gradient done
Exchange-correlation gradient    ... done

------------------
CARTESIAN GRADIENT
------------------

   1   C   :   -0.001915489   -0.005058510    0.000438076
   2   C   :    0.008012632    0.006998834   -0.000746851
   3   N   :   -0.008394840   -0.014343749    0.001419883
   4   C   :    0.006314283    0.004639395   -0.000582467
   5   N   :   -0.019467756    0.014936722   -0.000611901
   6   C   :    0.013834499   -0.004139254   -0.000078678
   7   O   :    0.002613358   -0.000722472   -0.000014498
   8   O   :   -0.003237143   -0.001831977    0.000257220
   9   H   :    0.000511044    0.000580935   -0.000078449
  10   H   :    0.002434845   -0.000884981   -0.000089680
  11   H   :   -0.000590710   -0.000676117    0.000091736
  12   H   :   -0.000114723    0.000501174   -0.000004391

Difference to translation invariance:
           :   -0.0000000000    0.0000000000    0.0000000000

Norm of the cartesian gradient     ...    0.0363843703
RMS gradient                       ...    0.0060640617
MAX gradient                       ...    0.0194677563

-------
TIMINGS
-------

Total SCF gradient time            ...        7.425 sec

One electron gradient       ....       0.040 sec  (  0.5%)
Prescreening matrices       ....       0.048 sec  (  0.6%)
Two electron gradient       ....       4.909 sec  ( 66.1%)
XC gradient                 ....       1.996 sec  ( 26.9%)
CPCM gradient               ....       0.336 sec  (  4.5%)
   A-Matrix (El+Nuc)        ....       0.003 sec  (  0.0%)
   Potential                ....       0.333 sec  (  4.5%)
------------------------------------------------------------------------------
                         ORCA GEOMETRY RELAXATION STEP
------------------------------------------------------------------------------

Reading the OPT-File                    .... done
Getting information on internals        .... done
Copying old internal coords+grads       .... done
Making the new internal coordinates     .... (new redundants).... done
Validating the new internal coordinates .... (new redundants).... done
Calculating the B-matrix                .... done
Calculating the G,G- and P matrices     .... done
Transforming gradient to internals      .... done
Projecting the internal gradient        .... done
Number of atoms                         ....  12
Number of internal coordinates          ....  54
Current Energy                          ....  -414.327005631 Eh
Current gradient norm                   ....     0.036384370 Eh/bohr
Maximum allowed component of the step   ....  0.300
Current trust radius                    ....  0.300
Updating the Hessian (BFGS)             .... done
Forming the augmented Hessian           .... done
Diagonalizing the augmented Hessian     .... done
Last element of RFO vector              ....  0.996028356
Lowest eigenvalues of augmented Hessian:
 -0.002245001  0.016371406  0.017942568  0.018935482  0.019581707
Length of the computed step             ....  0.089391619
The final length of the internal step   ....  0.089391619
Converting the step to cartesian space:
 Initial RMS(Int)=    0.0121646585
Transforming coordinates:
 Iter   0:  RMS(Cart)=    0.0173010073 RMS(Int)=    1.7099485362
 Iter   1:  RMS(Cart)=    0.0002464554 RMS(Int)=    0.0001449134
 Iter   2:  RMS(Cart)=    0.0000031757 RMS(Int)=    0.0000023032
 Iter   3:  RMS(Cart)=    0.0000000937 RMS(Int)=    0.0000000559
done
Storing new coordinates                 .... done

                                .--------------------.
          ----------------------|Geometry convergence|-------------------------
          Item                value                   Tolerance       Converged
          ---------------------------------------------------------------------
          Energy change      -0.0084610086            0.0000050000      NO
          RMS gradient        0.0034514961            0.0001000000      NO
          MAX gradient        0.0114183366            0.0003000000      NO
          RMS step            0.0121646585            0.0020000000      NO
          MAX step            0.0419607124            0.0040000000      NO
          ........................................................
          Max(Bonds)      0.0120      Max(Angles)    2.40
          Max(Dihed)        0.11      Max(Improp)    0.00
          ---------------------------------------------------------------------

The optimization has not yet converged - more geometry cycles are needed


    ---------------------------------------------------------------------------
                         Redundant Internal Coordinates
                            (Angstroem and degrees)

        Definition                    Value    dE/dq     Step     New-Value
    ----------------------------------------------------------------------------
     1. B(C   1,C   0)                1.3517 -0.003983  0.0045    1.3562   
     2. B(N   2,C   1)                1.3784  0.007253 -0.0110    1.3674   
     3. B(C   3,N   2)                1.3922  0.006661 -0.0120    1.3802   
     4. B(N   4,C   3)                1.3885  0.005883 -0.0104    1.3781   
     5. B(C   5,N   4)                1.4170  0.006760 -0.0113    1.4057   
     6. B(C   5,C   0)                1.4523  0.000786 -0.0015    1.4509   
     7. B(O   6,C   3)                1.2205 -0.002097  0.0013    1.2218   
     8. B(O   7,C   5)                1.2237 -0.002007  0.0016    1.2253   
     9. B(H   8,C   1)                1.0918 -0.000002 -0.0003    1.0915   
    10. B(H   9,N   2)                1.0170  0.000568  0.0001    1.0171   
    11. B(H  10,N   4)                1.0182  0.000087  0.0007    1.0189   
    12. B(H  11,C   0)                1.0895  0.000092 -0.0004    1.0890   
    13. A(C   1,C   0,H  11)          121.87 -0.001133    0.18    122.05   
    14. A(C   1,C   0,C   5)          120.52  0.003307   -0.61    119.91   
    15. A(C   5,C   0,H  11)          117.61 -0.002174    0.43    118.05   
    16. A(C   0,C   1,H   8)          122.74 -0.000529    0.11    122.85   
    17. A(C   0,C   1,N   2)          121.38 -0.000547    0.17    121.56   
    18. A(N   2,C   1,H   8)          115.88  0.001076   -0.28    115.59   
    19. A(C   3,N   2,H   9)          117.60  0.004840   -1.09    116.52   
    20. A(C   1,N   2,C   3)          122.46 -0.004822    1.00    123.47   
    21. A(C   1,N   2,H   9)          119.93 -0.000018    0.09    120.02   
    22. A(N   2,C   3,O   6)          121.36 -0.006157    1.29    122.66   
    23. A(N   2,C   3,N   4)          115.78  0.008349   -1.86    113.91   
    24. A(N   4,C   3,O   6)          122.86 -0.002192    0.57    123.43   
    25. A(C   3,N   4,H  10)          116.50  0.004845   -1.00    115.51   
    26. A(C   3,N   4,C   5)          124.99 -0.011418    2.40    127.40   
    27. A(C   5,N   4,H  10)          118.51  0.006573   -1.41    117.10   
    28. A(C   0,C   5,N   4)          114.86  0.005132   -1.10    113.76   
    29. A(N   4,C   5,O   7)          118.97 -0.006199    1.27    120.24   
    30. A(C   0,C   5,O   7)          126.17  0.001067   -0.17    126.00   
    31. D(H   8,C   1,C   0,C   5)   -179.97 -0.000014    0.03   -179.94   
    32. D(H   8,C   1,C   0,H  11)      0.03 -0.000013    0.03      0.06   
    33. D(N   2,C   1,C   0,H  11)    179.98 -0.000009    0.02    180.00   
    34. D(N   2,C   1,C   0,C   5)     -0.02 -0.000009    0.03      0.01   
    35. D(H   9,N   2,C   1,C   0)   -179.92 -0.000029    0.08   -179.84   
    36. D(C   3,N   2,C   1,C   0)     -0.00  0.000011   -0.03     -0.03   
    37. D(C   3,N   2,C   1,H   8)    179.95  0.000014   -0.03    179.92   
    38. D(H   9,N   2,C   1,H   8)      0.03 -0.000026    0.08      0.11   
    39. D(O   6,C   3,N   2,H   9)     -0.04  0.000034   -0.11     -0.16   
    40. D(O   6,C   3,N   2,C   1)   -179.96 -0.000002   -0.01   -179.97   
    41. D(N   4,C   3,N   2,H   9)    179.93  0.000024   -0.07    179.86   
    42. D(N   4,C   3,N   2,C   1)      0.01 -0.000012    0.04      0.05   
    43. D(H  10,N   4,C   3,N   2)    179.98  0.000013   -0.04    179.94   
    44. D(C   5,N   4,C   3,O   6)    179.97  0.000001   -0.00    179.97   
    45. D(C   5,N   4,C   3,N   2)     -0.00  0.000012   -0.05     -0.05   
    46. D(H  10,N   4,C   3,O   6)     -0.04  0.000002    0.00     -0.04   
    47. D(O   7,C   5,N   4,H  10)      0.04  0.000001   -0.02      0.02   
    48. D(C   0,C   5,N   4,H  10)    180.00 -0.000012    0.05    180.04   
    49. D(C   0,C   5,N   4,C   3)     -0.02 -0.000011    0.05      0.03   
    50. D(O   7,C   5,C   0,H  11)     -0.01 -0.000006    0.03      0.02   
    51. D(O   7,C   5,C   0,C   1)    179.99 -0.000006    0.03    180.02   
    52. D(O   7,C   5,N   4,C   3)   -179.98  0.000002   -0.01   -179.99   
    53. D(N   4,C   5,C   0,H  11)   -179.97  0.000011   -0.04   -180.01   
    54. D(N   4,C   5,C   0,C   1)      0.03  0.000011   -0.04     -0.01   
    ----------------------------------------------------------------------------

         *************************************************************
         *                GEOMETRY OPTIMIZATION CYCLE   3            *
         *************************************************************
---------------------------------
CARTESIAN COORDINATES (ANGSTROEM)
---------------------------------
  C      1.318192    0.515870   -0.072505
  C      1.108184   -0.819673    0.032981
  N     -0.153464   -1.341808    0.104146
  C     -1.298464   -0.571600    0.075986
  N     -1.059468    0.781368   -0.031995
  C      0.187950    1.424691   -0.111834
  O     -2.419108   -1.053983    0.141046
  O      0.248053    2.644988   -0.205150
  H      1.921992   -1.546228    0.067703
  H     -0.284276   -2.347178    0.185327
  H     -1.888876    1.372773   -0.055882
  H      2.319285    0.940781   -0.129852

----------------------------
CARTESIAN COORDINATES (A.U.)
----------------------------
  NO LB      ZA    FRAG     MASS         X           Y           Z
   0 C     6.0000    0    12.011    2.491022    0.974853   -0.137015
   1 C     6.0000    0    12.011    2.094164   -1.548958    0.062326
   2 N     7.0000    0    14.007   -0.290005   -2.535650    0.196808
   3 C     6.0000    0    12.011   -2.453741   -1.080168    0.143592
   4 N     7.0000    0    14.007   -2.002104    1.476571   -0.060461
   5 C     6.0000    0    12.011    0.355175    2.692276   -0.211337
[...]
     13       0.212304  -0.000101   0.005248   0.003024   0.008251  -0.112119
     14      -0.013717   0.032118   0.066397   0.032973   0.239787  -0.016116
     15       0.015521   0.003464   0.000383  -0.005216  -0.002484   0.010802
     16       0.016763   0.004739   0.000946  -0.015004  -0.026810  -0.191972
     17       0.002303   0.060963   0.008859  -0.203831  -0.139202   0.024329
     18       0.297638  -0.004128   0.000444  -0.001282   0.026224   0.261422
     19      -0.091390  -0.001482   0.000291  -0.003735   0.018538   0.045535
     20      -0.001378  -0.005688   0.006495  -0.046469   0.188588  -0.026545
     21      -0.226155   0.000958  -0.000099   0.001211   0.002832   0.022244
     22       0.034256  -0.001436   0.001254   0.004222  -0.019739  -0.263318
     23       0.001768  -0.019948   0.012805   0.052558   0.034199   0.016816
     24      -0.124280  -0.001417   0.002692   0.005763  -0.028625  -0.370960
     25      -0.355444   0.000345   0.008236   0.015380   0.040841   0.385402
     26       0.021860  -0.043186   0.119056   0.210671   0.104067  -0.029697
     27      -0.483592   0.027584  -0.006694   0.005282  -0.007268  -0.094950
     28       0.121245   0.074863  -0.019402   0.015277   0.002872   0.044712
     29       0.057985   0.958193  -0.249743   0.197221   0.000563   0.000484
     30       0.027924  -0.003536  -0.024196  -0.001812   0.012157   0.239557
     31       0.283828  -0.018703  -0.071678  -0.003747  -0.030046  -0.078019
     32      -0.029873  -0.234565  -0.950998  -0.057716  -0.297897   0.021481
     33       0.018824   0.001222  -0.000046   0.023206   0.002040  -0.136437
     34      -0.351133  -0.003741  -0.002271   0.067656   0.043053   0.060874
     35       0.018583  -0.076026  -0.017773   0.906017   0.497903  -0.039359
                 18         19         20         21         22         23    
      0      -0.004997   0.222665   0.061005   0.123213   0.093531  -0.010077
      1      -0.014232   0.001478   0.006575   0.088574   0.082735   0.021495
      2      -0.189926  -0.041751   0.073182  -0.009798  -0.008372  -0.001396
      3      -0.001683  -0.082022  -0.025865  -0.060548   0.064820   0.069608
      4      -0.004238   0.040818  -0.000783   0.096667  -0.039802   0.008613
      5      -0.056241   0.064815  -0.136724  -0.005612   0.000956  -0.002364
      6       0.000740  -0.047665  -0.012155   0.036704  -0.128550  -0.057932
      7       0.002710  -0.003159   0.000771  -0.326251  -0.071970  -0.017108
      8       0.034295  -0.005874   0.015587   0.023683   0.008870   0.002950
      9      -0.000479   0.077927   0.021094  -0.049888   0.013366  -0.015042
     10      -0.001775  -0.042612  -0.009860   0.053056  -0.002130   0.077145
     11      -0.025664  -0.005917   0.015522  -0.002653  -0.000079  -0.005333
     12      -0.001424  -0.184422  -0.049234  -0.124212   0.042334  -0.018818
     13      -0.004452  -0.061183  -0.017021   0.249895   0.002579  -0.077574
     14      -0.058062   0.012894  -0.005278  -0.015725  -0.001291   0.006299
     15       0.007355  -0.037626  -0.009200   0.075327  -0.056622   0.043242
     16       0.021769   0.034385   0.010451  -0.049496  -0.001029   0.011716
     17       0.292925  -0.009536   0.015861   0.001993   0.001531  -0.002060
     18       0.000548   0.071635   0.019009   0.003976   0.023263   0.004471
     19       0.000715   0.061123   0.015968  -0.019362  -0.010083  -0.006692
     20       0.008410  -0.005160  -0.004586   0.001406   0.000105   0.000347
     21      -0.002108   0.019982   0.005148  -0.035285   0.009724   0.003097
     22      -0.006363   0.024276   0.006139  -0.093046   0.009987  -0.007556
     23      -0.083440  -0.001052  -0.003207   0.007808  -0.001011   0.000494
     24       0.010469  -0.284180  -0.050507   0.235661  -0.115628   0.514187
     25       0.032041  -0.203077   0.019764   0.428300  -0.256280   0.500448
     26       0.420025  -0.386282   0.854551  -0.037979   0.023977  -0.051765
     27      -0.001479  -0.016266  -0.005601   0.160129  -0.414783  -0.587931
     28      -0.004749  -0.002085  -0.007081  -0.360726  -0.042871   0.046683
     29      -0.060581   0.036893  -0.075603   0.019321   0.012335   0.009781
     30       0.002377  -0.441450  -0.117279   0.086826   0.029661  -0.113474
     31       0.006858  -0.408487  -0.108529   0.560258  -0.017811  -0.212231
     32       0.093245   0.042048   0.013410  -0.044119   0.000528   0.018920
     33       0.020572   0.356723   0.082568   0.180510  -0.196206   0.088224
     34       0.061547  -0.253673  -0.105289  -0.032370   0.808806  -0.210659
     35       0.817102   0.217701  -0.428755  -0.002573  -0.056698   0.014100
                 24         25         26         27         28         29    
      0       0.059248  -0.049920   0.012528  -0.111732  -0.114626  -0.028937
      1      -0.017110   0.151783  -0.070350   0.065409   0.078617  -0.386569
      2      -0.000231  -0.010119   0.004948  -0.002097  -0.003034   0.029681
      3       0.090929   0.033811  -0.055352   0.050131   0.219606   0.161807
      4       0.074293  -0.016355  -0.006539   0.054646   0.020099   0.450731
      5      -0.007937   0.000186   0.001895  -0.005520  -0.006817  -0.038054
      6      -0.102615   0.088579  -0.004418   0.029472  -0.280015  -0.003920
      7       0.027209  -0.056779   0.061586   0.025641  -0.007010  -0.116937
      8       0.000627   0.002106  -0.004468  -0.002610   0.007508   0.009031
      9       0.059555  -0.041540   0.052290   0.124357  -0.022667  -0.033283
     10      -0.164485   0.085800  -0.158771  -0.190196  -0.043213   0.120360
     11       0.010797  -0.005260   0.010648   0.011193   0.003665  -0.008148
     12       0.112789  -0.048026  -0.132612  -0.028151  -0.074557  -0.015407
     13       0.101627  -0.119505  -0.070011   0.152733  -0.035949  -0.061391
     14      -0.010530   0.010257   0.008673  -0.010849   0.004630   0.005001
     15      -0.275586  -0.018062   0.080105   0.198507   0.138410   0.021184
     16      -0.009152  -0.001871  -0.025612   0.023034   0.026722  -0.051688
     17       0.007764   0.000554  -0.000145  -0.006642  -0.005478   0.003365
     18      -0.011356   0.014733   0.039848  -0.075525   0.100006   0.004481
     19      -0.007371   0.009115   0.051643  -0.004237   0.034354  -0.014022
     20       0.000848  -0.001082  -0.004931   0.002298  -0.005190   0.000933
     21       0.023004   0.021435  -0.001819  -0.037602  -0.012755  -0.007808
     22      -0.007984   0.008458   0.067655  -0.080639  -0.026429   0.087282
     23       0.000005  -0.001184  -0.005022   0.006963   0.002298  -0.006331
     24       0.089667  -0.360481   0.177325  -0.297096   0.030471  -0.556067
     25       0.076503  -0.473135   0.268419  -0.324919  -0.225450  -0.268131
     26      -0.007124   0.045297  -0.025007   0.032333   0.015956   0.035208
     27      -0.264683  -0.378163  -0.224647  -0.685360   0.798542  -0.296780
     28       0.047606  -0.003563   0.094306   0.114156  -0.147167  -0.089287
     29       0.002742   0.008782  -0.001483   0.008244  -0.007815   0.012564
     30       0.304814   0.333087   0.418790  -0.312204   0.054880   0.026527
     31       0.363583   0.399851   0.692812  -0.225992   0.140851  -0.006743
     32      -0.035099  -0.038722  -0.063116   0.024972  -0.011860  -0.000147
     33       0.328649   0.170131  -0.138217  -0.041251   0.028270  -0.291371
     34      -0.646631  -0.366259   0.281248  -0.133430  -0.276855   0.096578
     35       0.039702   0.023253  -0.017551   0.011021   0.019937  -0.000154
                 30         31         32         33         34         35    
      0      -0.041552  -0.013142  -0.023591   0.077860  -0.000476   0.000401
      1       0.123236   0.079896  -0.005121   0.036274   0.000237   0.001333
      2      -0.008185  -0.005622   0.000993  -0.004707  -0.000004  -0.000105
      3       0.011467   0.003728   0.062468   0.017736   0.000060   0.001646
      4      -0.019261  -0.025218  -0.057421  -0.022700   0.000215   0.000504
      5       0.001108   0.001909   0.002762   0.001265  -0.000017  -0.000076
      6       0.018439  -0.122099  -0.001366  -0.001260  -0.000777  -0.009324
      7       0.004563  -0.011605   0.000384  -0.000186  -0.001173  -0.073914
      8      -0.000860   0.003878   0.000004   0.000045   0.000114   0.006035
      9      -0.239443   0.612147  -0.001416  -0.000235  -0.000110  -0.000564
     10      -0.122214   0.260354   0.000492  -0.000199   0.000987   0.000715
     11       0.015503  -0.035539   0.000000   0.000021  -0.000068  -0.000033
     12       0.043175  -0.071439   0.000069  -0.000354   0.059490  -0.001635
     13       0.115013  -0.039950  -0.000116   0.000008  -0.043715   0.001773
     14      -0.009790   0.004766   0.000007   0.000010   0.001782  -0.000090
     15       0.045976   0.013834   0.000536  -0.002350  -0.000766   0.000356
     16      -0.589766  -0.307962   0.000030   0.002454  -0.000068  -0.000730
     17       0.042941   0.022740  -0.000013  -0.000126   0.000029   0.000047
     18       0.136861  -0.342620   0.000327   0.000030   0.000261  -0.000258
     19       0.056224  -0.147529   0.000043   0.000032   0.000075  -0.000157
     20      -0.007770   0.019998  -0.000011  -0.000004  -0.000012   0.000018
     21       0.003802   0.009330  -0.000078   0.000229   0.000057  -0.000026
     22       0.337408   0.185660  -0.000065  -0.000640  -0.000207   0.000449
     23      -0.025259  -0.014094   0.000007   0.000044   0.000013  -0.000034
     24       0.013941   0.042808  -0.711352  -0.211761   0.000310  -0.005131
     25      -0.026942   0.020860   0.632748   0.193147  -0.000303   0.003468
     26       0.001476  -0.002756  -0.030020  -0.009287   0.000017  -0.000152
     27      -0.156994   0.430910   0.003764   0.001193   0.002353   0.121187
     28       0.016744  -0.086625  -0.006563  -0.004265   0.024813   0.986197
     29       0.002920  -0.003347   0.000447   0.000324  -0.002016  -0.080748
     30      -0.363978   0.099437  -0.000738   0.000186  -0.806919   0.019721
     31      -0.439273   0.194417   0.000266  -0.000147   0.585009  -0.013475
     32       0.041678  -0.016887  -0.000003   0.000003  -0.023700   0.000523
     33       0.082024   0.059398   0.269634  -0.879564  -0.001255  -0.000918
     34      -0.215091  -0.101702   0.109198  -0.365219  -0.000012  -0.000059
     35       0.014082   0.005942  -0.015074   0.049815   0.000039   0.000026


-----------
IR SPECTRUM
-----------

 Mode    freq (cm**-1)   T**2         TX         TY         TZ
-------------------------------------------------------------------
   6:       163.96    2.846299  (  0.050700   0.102941   1.683191)
   7:       179.43    0.679794  ( -0.014960  -0.028049  -0.823883)
   8:       394.38   39.771629  (  4.771741  -4.120290   0.159159)
   9:       405.16   40.329255  (  0.206162   0.454928   6.330860)
  10:       528.65   38.482752  ( -2.940463  -5.434342   0.551688)
  11:       553.71   13.941786  (  3.724339   0.172188  -0.203558)
  12:       571.34    4.881760  ( -1.898311   1.119773   0.155833)
  13:       580.37   69.347609  (  0.301993   0.798845   8.283614)
  14:       654.97  135.714315  ( -0.313414  -0.846584 -11.614619)
  15:       731.25   18.888260  (  0.165212   0.380059   4.326259)
  16:       781.73   56.171064  ( -0.244183  -0.704094  -7.457593)
  17:       784.41    3.499312  ( -0.865330  -1.480811   0.746802)
  18:       818.39   75.424689  (  0.270920   0.620958   8.658274)
  19:       985.77    6.232441  (  0.869113   2.312507  -0.359716)
  20:       986.73    0.871675  (  0.356438   0.770556   0.388422)
  21:       993.88   11.624959  ( -2.732007   2.038020  -0.087005)
  22:      1089.35   15.724099  ( -2.341278   3.194576  -0.192865)
  23:      1194.82  177.048959  (  5.850847  11.904791  -1.045224)
  24:      1228.17    8.179325  ( -2.614398  -1.147704   0.164391)
  25:      1375.83   24.749998  ( -4.825841   1.208647   0.020738)
  26:      1406.22   59.716907  (  7.030440  -3.207350   0.052152)
  27:      1418.73  130.752832  ( 10.371440  -4.814297   0.092773)
  28:      1506.57  270.044671  ( 15.760870   4.595449  -0.722154)
  29:      1671.39  228.199896  (  2.181069  14.903340  -1.154682)
  30:      1749.13  1587.711830  (-15.260845 -36.673718   3.139561)
  31:      1796.48  763.491950  ( 27.599566   1.055916  -0.800587)
  32:      3221.59    1.458185  (  0.766169   0.927700  -0.102676)
  33:      3243.15    1.891983  ( -1.342940  -0.293671   0.047445)
  34:      3575.11  135.509578  ( -9.058524   7.303840  -0.326571)
  35:      3598.08  234.071967  (  1.047442  15.215060  -1.215231)

The first frequency considered to be a vibration is 6
The total number of vibrations considered is 30


--------------------------
THERMOCHEMISTRY AT 298.15K
--------------------------

Temperature         ... 298.15 K
Pressure            ... 1.00 atm
Total Mass          ... 112.09 AMU

Throughout the following assumptions are being made:
  (1) The electronic state is orbitally nondegenerate
  (2) There are no thermally accessible electronically excited states
  (3) Hindered rotations indicated by low frequency modes are not
      treated as such but are treated as vibrations and this may
      cause some error
  (4) All equations used are the standard statistical mechanics
      equations for an ideal gas
  (5) All vibrations are strictly harmonic

freq.     163.96  E(vib)   ...       0.39 
freq.     179.43  E(vib)   ...       0.37 
freq.     394.38  E(vib)   ...       0.20 
freq.     405.16  E(vib)   ...       0.19 
freq.     528.65  E(vib)   ...       0.13 
freq.     553.71  E(vib)   ...       0.12 
freq.     571.34  E(vib)   ...       0.11 
freq.     580.37  E(vib)   ...       0.11 
freq.     654.97  E(vib)   ...       0.08 
freq.     731.25  E(vib)   ...       0.06 
freq.     781.73  E(vib)   ...       0.05 
freq.     784.41  E(vib)   ...       0.05 
freq.     818.39  E(vib)   ...       0.05 
freq.     985.77  E(vib)   ...       0.02 
freq.     986.73  E(vib)   ...       0.02 
freq.     993.88  E(vib)   ...       0.02 
freq.    1089.35  E(vib)   ...       0.02 
freq.    1194.82  E(vib)   ...       0.01 
freq.    1228.17  E(vib)   ...       0.01 
freq.    1375.83  E(vib)   ...       0.01 
freq.    1406.22  E(vib)   ...       0.00 
freq.    1418.73  E(vib)   ...       0.00 
freq.    1506.57  E(vib)   ...       0.00 
freq.    1671.39  E(vib)   ...       0.00 
freq.    1749.13  E(vib)   ...       0.00 
freq.    1796.48  E(vib)   ...       0.00 
freq.    3221.59  E(vib)   ...       0.00 
freq.    3243.15  E(vib)   ...       0.00 
freq.    3575.11  E(vib)   ...       0.00 
freq.    3598.08  E(vib)   ...       0.00 

------------
INNER ENERGY
------------

The inner energy is: U= E(el) + E(ZPE) + E(vib) + E(rot) + E(trans)
    E(el)   - is the total energy from the electronic structure calculation
              = E(kin-el) + E(nuc-el) + E(el-el) + E(nuc-nuc)
    E(ZPE)  - the the zero temperature vibrational energy from the frequency calculation
    E(vib)  - the the finite temperature correction to E(ZPE) due to population
              of excited vibrational states
    E(rot)  - is the rotational thermal energy
    E(trans)- is the translational thermal energy

Summary of contributions to the inner energy U:
Electronic energy                ...   -414.32831493 Eh
Zero point energy                ...      0.08700040 Eh      54.59 kcal/mol
Thermal vibrational correction   ...      0.00325023 Eh       2.04 kcal/mol
Thermal rotational correction    ...      0.00141627 Eh       0.89 kcal/mol
Thermal translational correction ...      0.00141627 Eh       0.89 kcal/mol
-----------------------------------------------------------------------
Total thermal energy                   -414.23523175 Eh


Summary of corrections to the electronic energy:
(perhaps to be used in another calculation)
Total thermal correction                  0.00608277 Eh       3.82 kcal/mol
Non-thermal (ZPE) correction              0.08700040 Eh      54.59 kcal/mol
-----------------------------------------------------------------------
Total correction                          0.09308318 Eh      58.41 kcal/mol


--------
ENTHALPY
--------

The enthalpy is H = U + kB*T
                kB is Boltzmann's constant
Total free energy                 ...   -414.23523175 Eh 
Thermal Enthalpy correction       ...      0.00094421 Eh       0.59 kcal/mol
-----------------------------------------------------------------------
Total Enthalpy                    ...   -414.23428754 Eh


Note: Only C1 symmetry has been detected, increase convergence thresholds 
      if your molecule has a higher symmetry. Symmetry factor of 1.0 is   
      used for the rotational entropy correction. 
 

Note: Rotational entropy computed according to Herzberg 
Infrared and Raman Spectra, Chapter V,1, Van Nostrand Reinhold, 1945 
Point Group:  C1, Symmetry Number:   1  
Rotational constants in cm-1:     0.129181     0.067251     0.044227 

Vibrational entropy computed according to the QRRHO of S. Grimme
Chem.Eur.J. 2012 18 9955


-------
ENTROPY
-------

The entropy contributions are T*S = T*(S(el)+S(vib)+S(rot)+S(trans))
     S(el)   - electronic entropy
     S(vib)  - vibrational entropy
     S(rot)  - rotational entropy
     S(trans)- translational entropy
The entropies will be listed as mutliplied by the temperature to get
units of energy

Electronic entropy                ...      0.00000000 Eh      0.00 kcal/mol
Vibrational entropy               ...      0.00506104 Eh      3.18 kcal/mol
Rotational entropy                ...      0.01322346 Eh      8.30 kcal/mol
Translational entropy             ...      0.01903286 Eh     11.94 kcal/mol
-----------------------------------------------------------------------
Final entropy term                ...      0.03731736 Eh     23.42 kcal/mol

In case the symmetry of your molecule has not been determined correctly
or in case you have a reason to use a different symmetry number we print 
out the resulting rotational entropy values for sn=1,12 :
 --------------------------------------------------------
|  sn= 1 | S(rot)=       0.01322346 Eh      8.30 kcal/mol|
|  sn= 2 | S(rot)=       0.01256901 Eh      7.89 kcal/mol|
|  sn= 3 | S(rot)=       0.01218617 Eh      7.65 kcal/mol|
|  sn= 4 | S(rot)=       0.01191455 Eh      7.48 kcal/mol|
|  sn= 5 | S(rot)=       0.01170386 Eh      7.34 kcal/mol|
|  sn= 6 | S(rot)=       0.01153172 Eh      7.24 kcal/mol|
|  sn= 7 | S(rot)=       0.01138617 Eh      7.14 kcal/mol|
|  sn= 8 | S(rot)=       0.01126009 Eh      7.07 kcal/mol|
|  sn= 9 | S(rot)=       0.01114888 Eh      7.00 kcal/mol|
|  sn=10 | S(rot)=       0.01104940 Eh      6.93 kcal/mol|
|  sn=11 | S(rot)=       0.01095941 Eh      6.88 kcal/mol|
|  sn=12 | S(rot)=       0.01087726 Eh      6.83 kcal/mol|
 --------------------------------------------------------


-------------------
GIBBS FREE ENERGY
-------------------

The Gibbs free energy is G = H - T*S

Total enthalpy                    ...   -414.23428754 Eh 
Total entropy correction          ...     -0.03731736 Eh    -23.42 kcal/mol
-----------------------------------------------------------------------
Final Gibbs free energy         ...   -414.27160490 Eh

For completeness - the Gibbs free energy minus the electronic energy
G-E(el)                           ...      0.05671003 Eh     35.59 kcal/mol


Timings for individual modules:

Sum of individual times         ...      971.802 sec (=  16.197 min)
GTO integral calculation        ...        9.722 sec (=   0.162 min)   1.0 %
SCF iterations                  ...      236.924 sec (=   3.949 min)  24.4 %
SCF Gradient evaluation         ...       60.169 sec (=   1.003 min)   6.2 %
Geometry relaxation             ...        3.344 sec (=   0.056 min)   0.3 %
Analytical frequency calculation...      661.643 sec (=  11.027 min)  68.1 %
                             ****ORCA TERMINATED NORMALLY****
TOTAL RUN TIME: 0 days 0 hours 16 minutes 13 seconds 210 msec
