12
* (null), Energy   -1000.0000000
C     1.625816    0.316601   -0.065250   -0.187672   -0.166625    0.017618
C     1.413215   -1.019528    0.041288   -0.136378    0.081536   -0.003344
N     0.151412   -1.546563    0.113379    0.266203    0.143389   -0.017384
C    -1.001718   -0.778391    0.084609   -0.028129    0.007075    0.000628
N    -0.754728    0.578612   -0.023325   -0.090257   -0.008492    0.002896
C     0.489437    1.226278   -0.105125    0.121885    0.002703   -0.003193
O    -2.121379   -1.255957    0.147970   -0.047159    0.020781   -0.000450
O     0.544888    2.445398   -0.199422   -0.020007   -0.019917    0.001970
H     2.227146   -1.747036    0.075476    0.224262    0.514842   -0.038723
H     0.020614   -2.552189    0.190181    0.817684    0.087447   -0.032270
H    -1.580237    1.175741   -0.048115   -0.068213    0.027811   -0.000900
H     2.630238    0.734097   -0.122298    0.391508   -1.620944    0.109570
12
* Frequency(22) 1092.5260
C     1.604488    0.297665   -0.063248   -0.187672   -0.166625    0.017618
C     1.397716   -1.010262    0.040908   -0.136378    0.081536   -0.003344
N     0.181665   -1.530268    0.111403    0.266203    0.143389   -0.017384
C    -1.004914   -0.777587    0.084681   -0.028129    0.007075    0.000628
N    -0.764986    0.577647   -0.022995   -0.090257   -0.008492    0.002896
C     0.503289    1.226586   -0.105488    0.121885    0.002703   -0.003193
O    -2.126739   -1.253595    0.147919   -0.047159    0.020781   -0.000450
O     0.542614    2.443135   -0.199198   -0.020007   -0.019917    0.001970
H     2.252632   -1.688527    0.071075    0.224262    0.514842   -0.038723
H     0.113540   -2.542251    0.186514    0.817684    0.087447   -0.032270
H    -1.587990    1.178902   -0.048218   -0.068213    0.027811   -0.000900
H     2.674730    0.549885   -0.109846    0.391508   -1.620944    0.109570
12
* Frequency(22) 1092.5260
C     1.585471    0.280781   -0.061463   -0.187672   -0.166625    0.017618
C     1.383897   -1.002000    0.040569   -0.136378    0.081536   -0.003344
N     0.208639   -1.515738    0.109642    0.266203    0.143389   -0.017384
C    -1.007765   -0.776870    0.084744   -0.028129    0.007075    0.000628
N    -0.774131    0.576787   -0.022702   -0.090257   -0.008492    0.002896
C     0.515639    1.226859   -0.105811    0.121885    0.002703   -0.003193
O    -2.131517   -1.251489    0.147873   -0.047159    0.020781   -0.000450
O     0.540587    2.441116   -0.198998   -0.020007   -0.019917    0.001970
H     2.275357   -1.636358    0.067151    0.224262    0.514842   -0.038723
H     0.196396   -2.533390    0.183244    0.817684    0.087447   -0.032270
H    -1.594902    1.181720   -0.048309   -0.068213    0.027811   -0.000900
H     2.714402    0.385636   -0.098743    0.391508   -1.620944    0.109570
12
* Frequency(22) 1092.5260
C     1.570826    0.267779   -0.060088   -0.187672   -0.166625    0.017618
C     1.373255   -0.995638    0.040308   -0.136378    0.081536   -0.003344
N     0.229412   -1.504549    0.108285    0.266203    0.143389   -0.017384
C    -1.009960   -0.776318    0.084793   -0.028129    0.007075    0.000628
N    -0.781174    0.576124   -0.022476   -0.090257   -0.008492    0.002896
C     0.525151    1.227070   -0.106060    0.121885    0.002703   -0.003193
O    -2.135197   -1.249868    0.147838   -0.047159    0.020781   -0.000450
O     0.539026    2.439562   -0.198845   -0.020007   -0.019917    0.001970
H     2.292857   -1.596183    0.064129    0.224262    0.514842   -0.038723
H     0.260203   -2.526566    0.180725    0.817684    0.087447   -0.032270
H    -1.600225    1.183890   -0.048379   -0.068213    0.027811   -0.000900
H     2.744953    0.259147   -0.090193    0.391508   -1.620944    0.109570
12
* Frequency(22) 1092.5260
C     1.562140    0.260067   -0.059273   -0.187672   -0.166625    0.017618
C     1.366943   -0.991864    0.040154   -0.136378    0.081536   -0.003344
N     0.241732   -1.497913    0.107481    0.266203    0.143389   -0.017384
C    -1.011262   -0.775990    0.084822   -0.028129    0.007075    0.000628
N    -0.785352    0.575731   -0.022342   -0.090257   -0.008492    0.002896
C     0.530792    1.227195   -0.106208    0.121885    0.002703   -0.003193
O    -2.137380   -1.248906    0.147817   -0.047159    0.020781   -0.000450
O     0.538100    2.438640   -0.198753   -0.020007   -0.019917    0.001970
H     2.303236   -1.572355    0.062337    0.224262    0.514842   -0.038723
H     0.298046   -2.522519    0.179232    0.817684    0.087447   -0.032270
H    -1.603382    1.185178   -0.048421   -0.068213    0.027811   -0.000900
H     2.763072    0.184127   -0.085122    0.391508   -1.620944    0.109570
12
* Frequency(22) 1092.5260
C     1.560355    0.258482   -0.059105   -0.187672   -0.166625    0.017618
C     1.365646   -0.991088    0.040122   -0.136378    0.081536   -0.003344
N     0.244265   -1.496548    0.107315    0.266203    0.143389   -0.017384
C    -1.011529   -0.775923    0.084828   -0.028129    0.007075    0.000628
N    -0.786210    0.575650   -0.022315   -0.090257   -0.008492    0.002896
C     0.531951    1.227221   -0.106239    0.121885    0.002703   -0.003193
O    -2.137829   -1.248708    0.147813   -0.047159    0.020781   -0.000450
O     0.537909    2.438451   -0.198735   -0.020007   -0.019917    0.001970
H     2.305370   -1.567457    0.061969    0.224262    0.514842   -0.038723
H     0.305826   -2.521687    0.178925    0.817684    0.087447   -0.032270
H    -1.604031    1.185442   -0.048429   -0.068213    0.027811   -0.000900
H     2.766797    0.168704   -0.084079    0.391508   -1.620944    0.109570
12
* Frequency(22) 1092.5260
C     1.565663    0.263195   -0.059603   -0.187672   -0.166625    0.017618
C     1.369503   -0.993395    0.040216   -0.136378    0.081536   -0.003344
N     0.236736   -1.500604    0.107807    0.266203    0.143389   -0.017384
C    -1.010734   -0.776123    0.084811   -0.028129    0.007075    0.000628
N    -0.783658    0.575890   -0.022396   -0.090257   -0.008492    0.002896
C     0.528504    1.227145   -0.106148    0.121885    0.002703   -0.003193
O    -2.136495   -1.249296    0.147826   -0.047159    0.020781   -0.000450
O     0.538475    2.439014   -0.198790   -0.020007   -0.019917    0.001970
H     2.299027   -1.582019    0.063064    0.224262    0.514842   -0.038723
H     0.282699   -2.524160    0.179838    0.817684    0.087447   -0.032270
H    -1.602101    1.184656   -0.048404   -0.068213    0.027811   -0.000900
H     2.755724    0.214551   -0.087178    0.391508   -1.620944    0.109570
12
* Frequency(22) 1092.5260
C     1.577489    0.273695   -0.060714   -0.187672   -0.166625    0.017618
C     1.378097   -0.998533    0.040427   -0.136378    0.081536   -0.003344
N     0.219960   -1.509640    0.108903    0.266203    0.143389   -0.017384
C    -1.008961   -0.776569    0.084771   -0.028129    0.007075    0.000628
N    -0.777970    0.576426   -0.022579   -0.090257   -0.008492    0.002896
C     0.520823    1.226974   -0.105947    0.121885    0.002703   -0.003193
O    -2.133523   -1.250605    0.147854   -0.047159    0.020781   -0.000450
O     0.539736    2.440269   -0.198915   -0.020007   -0.019917    0.001970
H     2.284894   -1.614463    0.065504    0.224262    0.514842   -0.038723
H     0.231171   -2.529671    0.181871    0.817684    0.087447   -0.032270
H    -1.597803    1.182903   -0.048347   -0.068213    0.027811   -0.000900
H     2.731052    0.316699   -0.094083    0.391508   -1.620944    0.109570
12
* Frequency(22) 1092.5260
C     1.594553    0.288845   -0.062315   -0.187672   -0.166625    0.017618
C     1.390497   -1.005946    0.040731   -0.136378    0.081536   -0.003344
N     0.195757   -1.522677    0.110483    0.266203    0.143389   -0.017384
C    -1.006403   -0.777212    0.084714   -0.028129    0.007075    0.000628
N    -0.769763    0.577198   -0.022842   -0.090257   -0.008492    0.002896
C     0.509741    1.226729   -0.105657    0.121885    0.002703   -0.003193
O    -2.129235   -1.252495    0.147895   -0.047159    0.020781   -0.000450
O     0.541555    2.442080   -0.199094   -0.020007   -0.019917    0.001970
H     2.264504   -1.661273    0.069025    0.224262    0.514842   -0.038723
H     0.156825   -2.537622    0.184805    0.817684    0.087447   -0.032270
H    -1.591601    1.180374   -0.048265   -0.068213    0.027811   -0.000900
H     2.695456    0.464078   -0.104045    0.391508   -1.620944    0.109570
12
* Frequency(22) 1092.5260
C     1.615004    0.307003   -0.064235   -0.187672   -0.166625    0.017618
C     1.405359   -1.014831    0.041095   -0.136378    0.081536   -0.003344
N     0.166748   -1.538303    0.112378    0.266203    0.143389   -0.017384
C    -1.003338   -0.777983    0.084646   -0.028129    0.007075    0.000628
N    -0.759928    0.578123   -0.023158   -0.090257   -0.008492    0.002896
C     0.496459    1.226434   -0.105309    0.121885    0.002703   -0.003193
O    -2.124096   -1.254760    0.147944   -0.047159    0.020781   -0.000450
O     0.543735    2.444251   -0.199308   -0.020007   -0.019917    0.001970
H     2.240066   -1.717377    0.073245    0.224262    0.514842   -0.038723
H     0.067720   -2.547151    0.188322    0.817684    0.087447   -0.032270
H    -1.584167    1.177344   -0.048167   -0.068213    0.027811   -0.000900
H     2.652792    0.640718   -0.115986    0.391508   -1.620944    0.109570
12
* Frequency(22) 1092.5260
C     1.636627    0.326200   -0.066265   -0.187672   -0.166625    0.017618
C     1.421072   -1.024226    0.041481   -0.136378    0.081536   -0.003344
N     0.136077   -1.554824    0.114380    0.266203    0.143389   -0.017384
C    -1.000097   -0.778798    0.084573   -0.028129    0.007075    0.000628
N    -0.749529    0.579101   -0.023491   -0.090257   -0.008492    0.002896
C     0.482416    1.226123   -0.104941    0.121885    0.002703   -0.003193
O    -2.118663   -1.257154    0.147996   -0.047159    0.020781   -0.000450
O     0.546040    2.446545   -0.199535   -0.020007   -0.019917    0.001970
H     2.214227   -1.776695    0.077706    0.224262    0.514842   -0.038723
H    -0.026491   -2.557227    0.192040    0.817684    0.087447   -0.032270
H    -1.576308    1.174139   -0.048064   -0.068213    0.027811   -0.000900
H     2.607684    0.827477   -0.128610    0.391508   -1.620944    0.109570
12
* Frequency(22) 1092.5260
C     1.657078    0.344358   -0.068185   -0.187672   -0.166625    0.017618
C     1.435933   -1.033111    0.041845   -0.136378    0.081536   -0.003344
N     0.107068   -1.570449    0.116275    0.266203    0.143389   -0.017384
C    -0.997032   -0.779569    0.084505   -0.028129    0.007075    0.000628
N    -0.739693    0.580027   -0.023807   -0.090257   -0.008492    0.002896
C     0.469133    1.225828   -0.104593    0.121885    0.002703   -0.003193
O    -2.113524   -1.259419    0.148045   -0.047159    0.020781   -0.000450
O     0.548221    2.448716   -0.199750   -0.020007   -0.019917    0.001970
H     2.189788   -1.832800    0.081926    0.224262    0.514842   -0.038723
H    -0.115597   -2.566756    0.195557    0.817684    0.087447   -0.032270
H    -1.568874    1.171108   -0.047966   -0.068213    0.027811   -0.000900
H     2.565020    1.004117   -0.140550    0.391508   -1.620944    0.109570
12
* Frequency(22) 1092.5260
C     1.674142    0.359508   -0.069787   -0.187672   -0.166625    0.017618
C     1.448333   -1.040524    0.042149   -0.136378    0.081536   -0.003344
N     0.082864   -1.583487    0.117855    0.266203    0.143389   -0.017384
C    -0.994474   -0.780213    0.084448   -0.028129    0.007075    0.000628
N    -0.731487    0.580799   -0.024070   -0.090257   -0.008492    0.002896
C     0.458051    1.225582   -0.104303    0.121885    0.002703   -0.003193
O    -2.109236   -1.261308    0.148086   -0.047159    0.020781   -0.000450
O     0.550040    2.450527   -0.199929   -0.020007   -0.019917    0.001970
H     2.169398   -1.879610    0.085447    0.224262    0.514842   -0.038723
H    -0.189942   -2.574707    0.198491    0.817684    0.087447   -0.032270
H    -1.562672    1.168580   -0.047884   -0.068213    0.027811   -0.000900
H     2.529423    1.151496   -0.150512    0.391508   -1.620944    0.109570
12
* Frequency(22) 1092.5260
C     1.685968    0.370008   -0.070897   -0.187672   -0.166625    0.017618
C     1.456927   -1.045662    0.042360   -0.136378    0.081536   -0.003344
N     0.066089   -1.592523    0.118951    0.266203    0.143389   -0.017384
C    -0.992702   -0.780658    0.084408   -0.028129    0.007075    0.000628
N    -0.725799    0.581334   -0.024253   -0.090257   -0.008492    0.002896
C     0.450371    1.225412   -0.104101    0.121885    0.002703   -0.003193
O    -2.106264   -1.262618    0.148115   -0.047159    0.020781   -0.000450
O     0.551300    2.451782   -0.200053   -0.020007   -0.019917    0.001970
H     2.155266   -1.912054    0.087887    0.224262    0.514842   -0.038723
H    -0.241470   -2.580218    0.200524    0.817684    0.087447   -0.032270
H    -1.558374    1.166827   -0.047827   -0.068213    0.027811   -0.000900
H     2.504751    1.253643   -0.157417    0.391508   -1.620944    0.109570
12
* Frequency(22) 1092.5260
C     1.691276    0.374721   -0.071395   -0.187672   -0.166625    0.017618
C     1.460784   -1.047968    0.042454   -0.136378    0.081536   -0.003344
N     0.058559   -1.596578    0.119443    0.266203    0.143389   -0.017384
C    -0.991906   -0.780858    0.084390   -0.028129    0.007075    0.000628
N    -0.723246    0.581574   -0.024335   -0.090257   -0.008492    0.002896
C     0.446923    1.225336   -0.104011    0.121885    0.002703   -0.003193
O    -2.104930   -1.263205    0.148127   -0.047159    0.020781   -0.000450
O     0.551866    2.452345   -0.200109   -0.020007   -0.019917    0.001970
H     2.148923   -1.926616    0.088982    0.224262    0.514842   -0.038723
H    -0.264598   -2.582691    0.201437    0.817684    0.087447   -0.032270
H    -1.556444    1.166041   -0.047802   -0.068213    0.027811   -0.000900
H     2.493678    1.299490   -0.160516    0.391508   -1.620944    0.109570
12
* Frequency(22) 1092.5260
C     1.689491    0.373136   -0.071228   -0.187672   -0.166625    0.017618
C     1.459487   -1.047193    0.042422   -0.136378    0.081536   -0.003344
N     0.061092   -1.595214    0.119277    0.266203    0.143389   -0.017384
C    -0.992174   -0.780791    0.084396   -0.028129    0.007075    0.000628
N    -0.724105    0.581493   -0.024307   -0.090257   -0.008492    0.002896
C     0.448083    1.225361   -0.104042    0.121885    0.002703   -0.003193
O    -2.105379   -1.263008    0.148123   -0.047159    0.020781   -0.000450
O     0.551676    2.452156   -0.200090   -0.020007   -0.019917    0.001970
H     2.151057   -1.921717    0.088614    0.224262    0.514842   -0.038723
H    -0.256818   -2.581859    0.201130    0.817684    0.087447   -0.032270
H    -1.557093    1.166305   -0.047810   -0.068213    0.027811   -0.000900
H     2.497403    1.284067   -0.159473    0.391508   -1.620944    0.109570
12
* Frequency(22) 1092.5260
C     1.680805    0.365424   -0.070412   -0.187672   -0.166625    0.017618
C     1.453175   -1.043419    0.042268   -0.136378    0.081536   -0.003344
N     0.073413   -1.588578    0.118473    0.266203    0.143389   -0.017384
C    -0.993476   -0.780464    0.084425   -0.028129    0.007075    0.000628
N    -0.728282    0.581100   -0.024173   -0.090257   -0.008492    0.002896
C     0.453724    1.225486   -0.104189    0.121885    0.002703   -0.003193
O    -2.107561   -1.262046    0.148102   -0.047159    0.020781   -0.000450
O     0.550750    2.451234   -0.199999   -0.020007   -0.019917    0.001970
H     2.161436   -1.897889    0.086822    0.224262    0.514842   -0.038723
H    -0.218974   -2.577812    0.199636    0.817684    0.087447   -0.032270
H    -1.560250    1.167592   -0.047852   -0.068213    0.027811   -0.000900
H     2.515523    1.209047   -0.154402    0.391508   -1.620944    0.109570
12
* Frequency(22) 1092.5260
C     1.666160    0.352422   -0.069037   -0.187672   -0.166625    0.017618
C     1.442533   -1.037056    0.042007   -0.136378    0.081536   -0.003344
N     0.094185   -1.577388    0.117116    0.266203    0.143389   -0.017384
C    -0.995671   -0.779912    0.084474   -0.028129    0.007075    0.000628
N    -0.735325    0.580438   -0.023947   -0.090257   -0.008492    0.002896
C     0.463235    1.225697   -0.104438    0.121885    0.002703   -0.003193
O    -2.111241   -1.260424    0.148067   -0.047159    0.020781   -0.000450
O     0.549189    2.449680   -0.199846   -0.020007   -0.019917    0.001970
H     2.178936   -1.857714    0.083800    0.224262    0.514842   -0.038723
H    -0.155167   -2.570988    0.197118    0.817684    0.087447   -0.032270
H    -1.565573    1.169763   -0.047922   -0.068213    0.027811   -0.000900
H     2.546073    1.082559   -0.145852    0.391508   -1.620944    0.109570
12
* Frequency(22) 1092.5260
C     1.647143    0.335538   -0.067252   -0.187672   -0.166625    0.017618
C     1.428714   -1.028795    0.041668   -0.136378    0.081536   -0.003344
N     0.121160   -1.562859    0.115355    0.266203    0.143389   -0.017384
C    -0.998521   -0.779195    0.084538   -0.028129    0.007075    0.000628
N    -0.744471    0.579577   -0.023654   -0.090257   -0.008492    0.002896
C     0.475586    1.225971   -0.104762    0.121885    0.002703   -0.003193
O    -2.116020   -1.258318    0.148021   -0.047159    0.020781   -0.000450
O     0.547162    2.447661   -0.199646   -0.020007   -0.019917    0.001970
H     2.201660   -1.805545    0.079876    0.224262    0.514842   -0.038723
H    -0.072311   -2.562127    0.193848    0.817684    0.087447   -0.032270
H    -1.572485    1.172581   -0.048013   -0.068213    0.027811   -0.000900
H     2.585745    0.918309   -0.134750    0.391508   -1.620944    0.109570
12
* Frequency(22) 1092.5260
C     1.625816    0.316601   -0.065250   -0.187672   -0.166625    0.017618
C     1.413215   -1.019528    0.041288   -0.136378    0.081536   -0.003344
N     0.151412   -1.546563    0.113379    0.266203    0.143389   -0.017384
C    -1.001718   -0.778391    0.084609   -0.028129    0.007075    0.000628
N    -0.754728    0.578612   -0.023325   -0.090257   -0.008492    0.002896
C     0.489437    1.226278   -0.105125    0.121885    0.002703   -0.003193
O    -2.121379   -1.255957    0.147970   -0.047159    0.020781   -0.000450
O     0.544888    2.445398   -0.199422   -0.020007   -0.019917    0.001970
H     2.227146   -1.747036    0.075476    0.224262    0.514842   -0.038723
H     0.020614   -2.552189    0.190181    0.817684    0.087447   -0.032270
H    -1.580237    1.175741   -0.048115   -0.068213    0.027811   -0.000900
H     2.630238    0.734097   -0.122298    0.391508   -1.620944    0.109570
