12
* (null), Energy   -1000.0000000
C     1.625816    0.316601   -0.065250   -0.649959   -0.055995    0.018186
C     1.413215   -1.019528    0.041288   -0.319804   -0.178749    0.025496
N     0.151412   -1.546563    0.113379   -0.007356   -0.755333    0.051893
C    -1.001718   -0.778391    0.084609    0.372263   -0.295800    0.013203
N    -0.754728    0.578612   -0.023325    0.157340   -0.033254    0.002885
C     0.489437    1.226278   -0.105125   -0.166854    0.555144   -0.040091
O    -2.121379   -1.255957    0.147970    0.219680    0.158222   -0.016786
O     0.544888    2.445398   -0.199422    0.269527    0.613538   -0.052803
H     2.227146   -1.747036    0.075476    0.114246    0.310774   -0.011548
H     0.020614   -2.552189    0.190181   -0.016966   -0.764900    0.066861
H    -1.580237    1.175741   -0.048115   -0.341055   -0.714884    0.040223
H     2.630238    0.734097   -0.122298   -0.497283   -0.415439    0.047672
12
* Frequency(10)  528.9008
C     1.551951    0.310238   -0.063183   -0.649959   -0.055995    0.018186
C     1.376871   -1.039842    0.044185   -0.319804   -0.178749    0.025496
N     0.150576   -1.632403    0.119276   -0.007356   -0.755333    0.051893
C    -0.959412   -0.812007    0.086110    0.372263   -0.295800    0.013203
N    -0.736847    0.574833   -0.022997    0.157340   -0.033254    0.002885
C     0.470475    1.289368   -0.109681   -0.166854    0.555144   -0.040091
O    -2.096414   -1.237976    0.146063    0.219680    0.158222   -0.016786
O     0.575518    2.515123   -0.205423    0.269527    0.613538   -0.052803
H     2.240130   -1.711718    0.074163    0.114246    0.310774   -0.011548
H     0.018686   -2.639116    0.197779   -0.016966   -0.764900    0.066861
H    -1.618997    1.094498   -0.043544   -0.341055   -0.714884    0.040223
H     2.573724    0.686885   -0.116880   -0.497283   -0.415439    0.047672
12
* Frequency(10)  528.9008
C     1.486091    0.304564   -0.061341   -0.649959   -0.055995    0.018186
C     1.344465   -1.057955    0.046769   -0.319804   -0.178749    0.025496
N     0.149831   -1.708941    0.124535   -0.007356   -0.755333    0.051893
C    -0.921691   -0.841980    0.087448    0.372263   -0.295800    0.013203
N    -0.720904    0.571463   -0.022704    0.157340   -0.033254    0.002885
C     0.453568    1.345620   -0.113743   -0.166854    0.555144   -0.040091
O    -2.074154   -1.221943    0.144362    0.219680    0.158222   -0.016786
O     0.602829    2.577293   -0.210773    0.269527    0.613538   -0.052803
H     2.251706   -1.680228    0.072993    0.114246    0.310774   -0.011548
H     0.016967   -2.716623    0.204554   -0.016966   -0.764900    0.066861
H    -1.653556    1.022059   -0.039468   -0.341055   -0.714884    0.040223
H     2.523334    0.644788   -0.112049   -0.497283   -0.415439    0.047672
12
* Frequency(10)  528.9008
C     1.435372    0.300195   -0.059922   -0.649959   -0.055995    0.018186
C     1.319510   -1.071903    0.048759   -0.319804   -0.178749    0.025496
N     0.149257   -1.767882    0.128584   -0.007356   -0.755333    0.051893
C    -0.892641   -0.865062    0.088478    0.372263   -0.295800    0.013203
N    -0.708626    0.568869   -0.022479    0.157340   -0.033254    0.002885
C     0.440548    1.388940   -0.116872   -0.166854    0.555144   -0.040091
O    -2.057011   -1.209596    0.143052    0.219680    0.158222   -0.016786
O     0.623861    2.625170   -0.214894    0.269527    0.613538   -0.052803
H     2.260621   -1.655977    0.072092    0.114246    0.310774   -0.011548
H     0.015643   -2.776311    0.209772   -0.016966   -0.764900    0.066861
H    -1.680169    0.966274   -0.036330   -0.341055   -0.714884    0.040223
H     2.484530    0.612370   -0.108329   -0.497283   -0.415439    0.047672
12
* Frequency(10)  528.9008
C     1.405291    0.297603   -0.059080   -0.649959   -0.055995    0.018186
C     1.304709   -1.080176    0.049939   -0.319804   -0.178749    0.025496
N     0.148916   -1.802840    0.130986   -0.007356   -0.755333    0.051893
C    -0.875412   -0.878753    0.089089    0.372263   -0.295800    0.013203
N    -0.701344    0.567329   -0.022346    0.157340   -0.033254    0.002885
C     0.432825    1.414633   -0.118727   -0.166854    0.555144   -0.040091
O    -2.046844   -1.202274    0.142275    0.219680    0.158222   -0.016786
O     0.636336    2.653565   -0.217338    0.269527    0.613538   -0.052803
H     2.265909   -1.641594    0.071558    0.114246    0.310774   -0.011548
H     0.014858   -2.811712    0.212866   -0.016966   -0.764900    0.066861
H    -1.695954    0.933188   -0.034468   -0.341055   -0.714884    0.040223
H     2.461514    0.593143   -0.106123   -0.497283   -0.415439    0.047672
12
* Frequency(10)  528.9008
C     1.399107    0.297070   -0.058907   -0.649959   -0.055995    0.018186
C     1.301666   -1.081877    0.050181   -0.319804   -0.178749    0.025496
N     0.148846   -1.810027    0.131480   -0.007356   -0.755333    0.051893
C    -0.871870   -0.881567    0.089215    0.372263   -0.295800    0.013203
N    -0.699847    0.567013   -0.022318    0.157340   -0.033254    0.002885
C     0.431238    1.419915   -0.119109   -0.166854    0.555144   -0.040091
O    -2.044754   -1.200768    0.142115    0.219680    0.158222   -0.016786
O     0.638900    2.659403   -0.217840    0.269527    0.613538   -0.052803
H     2.266996   -1.638637    0.071448    0.114246    0.310774   -0.011548
H     0.014697   -2.818990    0.213502   -0.016966   -0.764900    0.066861
H    -1.699199    0.926386   -0.034085   -0.341055   -0.714884    0.040223
H     2.456783    0.589190   -0.105669   -0.497283   -0.415439    0.047672
12
* Frequency(10)  528.9008
C     1.417490    0.298654   -0.059421   -0.649959   -0.055995    0.018186
C     1.310711   -1.076821    0.049460   -0.319804   -0.178749    0.025496
N     0.149054   -1.788663    0.130012   -0.007356   -0.755333    0.051893
C    -0.882400   -0.873201    0.088841    0.372263   -0.295800    0.013203
N    -0.704298    0.567954   -0.022400    0.157340   -0.033254    0.002885
C     0.435957    1.404213   -0.117975   -0.166854    0.555144   -0.040091
O    -2.050968   -1.205243    0.142590    0.219680    0.158222   -0.016786
O     0.631277    2.642050   -0.216346    0.269527    0.613538   -0.052803
H     2.263764   -1.647427    0.071774    0.114246    0.310774   -0.011548
H     0.015176   -2.797355    0.211611   -0.016966   -0.764900    0.066861
H    -1.689553    0.946606   -0.035223   -0.341055   -0.714884    0.040223
H     2.470848    0.600940   -0.107018   -0.497283   -0.415439    0.047672
12
* Frequency(10)  528.9008
C     1.458449    0.302183   -0.060567   -0.649959   -0.055995    0.018186
C     1.330864   -1.065557    0.047853   -0.319804   -0.178749    0.025496
N     0.149518   -1.741064    0.126742   -0.007356   -0.755333    0.051893
C    -0.905859   -0.854560    0.088009    0.372263   -0.295800    0.013203
N    -0.714213    0.570049   -0.022582    0.157340   -0.033254    0.002885
C     0.446472    1.369230   -0.115448   -0.166854    0.555144   -0.040091
O    -2.064811   -1.215214    0.143648    0.219680    0.158222   -0.016786
O     0.614292    2.603386   -0.213019    0.269527    0.613538   -0.052803
H     2.256565   -1.667011    0.072502    0.114246    0.310774   -0.011548
H     0.016246   -2.749154    0.207398   -0.016966   -0.764900    0.066861
H    -1.668060    0.991656   -0.037758   -0.341055   -0.714884    0.040223
H     2.502186    0.627120   -0.110022   -0.497283   -0.415439    0.047672
12
* Frequency(10)  528.9008
C     1.517544    0.307274   -0.062221   -0.649959   -0.055995    0.018186
C     1.359942   -1.049305    0.045535   -0.319804   -0.178749    0.025496
N     0.150187   -1.672388    0.122023   -0.007356   -0.755333    0.051893
C    -0.939705   -0.827665    0.086809    0.372263   -0.295800    0.013203
N    -0.728518    0.573073   -0.022844    0.157340   -0.033254    0.002885
C     0.461642    1.318755   -0.111803   -0.166854    0.555144   -0.040091
O    -2.084785   -1.229600    0.145174    0.219680    0.158222   -0.016786
O     0.589786    2.547602   -0.208218    0.269527    0.613538   -0.052803
H     2.246177   -1.695267    0.073552    0.114246    0.310774   -0.011548
H     0.017788   -2.679607    0.201319   -0.016966   -0.764900    0.066861
H    -1.637051    1.056655   -0.041415   -0.341055   -0.714884    0.040223
H     2.547399    0.664893   -0.114356   -0.497283   -0.415439    0.047672
12
* Frequency(10)  528.9008
C     1.588373    0.313376   -0.064202   -0.649959   -0.055995    0.018186
C     1.394792   -1.029826    0.042757   -0.319804   -0.178749    0.025496
N     0.150988   -1.590077    0.116368   -0.007356   -0.755333    0.051893
C    -0.980272   -0.795431    0.085370    0.372263   -0.295800    0.013203
N    -0.745664    0.576696   -0.023158    0.157340   -0.033254    0.002885
C     0.479825    1.258259   -0.107434   -0.166854    0.555144   -0.040091
O    -2.108724   -1.246842    0.147003    0.219680    0.158222   -0.016786
O     0.560415    2.480743   -0.202464    0.269527    0.613538   -0.052803
H     2.233728   -1.729133    0.074810    0.114246    0.310774   -0.011548
H     0.019637   -2.596254    0.194033   -0.016966   -0.764900    0.066861
H    -1.599885    1.134558   -0.045798   -0.341055   -0.714884    0.040223
H     2.601590    0.710164   -0.119551   -0.497283   -0.415439    0.047672
12
* Frequency(10)  528.9008
C     1.663258    0.319827   -0.066298   -0.649959   -0.055995    0.018186
C     1.431638   -1.009231    0.039819   -0.319804   -0.178749    0.025496
N     0.151836   -1.503050    0.110389   -0.007356   -0.755333    0.051893
C    -1.023163   -0.761350    0.083849    0.372263   -0.295800    0.013203
N    -0.763792    0.580528   -0.023491    0.157340   -0.033254    0.002885
C     0.499049    1.194298   -0.102815   -0.166854    0.555144   -0.040091
O    -2.134035   -1.265072    0.148937    0.219680    0.158222   -0.016786
O     0.529361    2.410053   -0.196380    0.269527    0.613538   -0.052803
H     2.220565   -1.764939    0.076141    0.114246    0.310774   -0.011548
H     0.021592   -2.508125    0.186329   -0.016966   -0.764900    0.066861
H    -1.560590    1.216925   -0.050433   -0.341055   -0.714884    0.040223
H     2.658885    0.758030   -0.125044   -0.497283   -0.415439    0.047672
12
* Frequency(10)  528.9008
C     1.734087    0.325929   -0.068280   -0.649959   -0.055995    0.018186
C     1.466489   -0.989752    0.037041   -0.319804   -0.178749    0.025496
N     0.152637   -1.420739    0.104734   -0.007356   -0.755333    0.051893
C    -1.063730   -0.729116    0.082410    0.372263   -0.295800    0.013203
N    -0.780938    0.584152   -0.023805    0.157340   -0.033254    0.002885
C     0.517232    1.133802   -0.098447   -0.166854    0.555144   -0.040091
O    -2.157974   -1.282314    0.150766    0.219680    0.158222   -0.016786
O     0.499990    2.343194   -0.190626    0.269527    0.613538   -0.052803
H     2.208115   -1.798805    0.077399    0.114246    0.310774   -0.011548
H     0.023441   -2.424771    0.179043   -0.016966   -0.764900    0.066861
H    -1.523424    1.294828   -0.054816   -0.341055   -0.714884    0.040223
H     2.713076    0.803302   -0.130239   -0.497283   -0.415439    0.047672
12
* Frequency(10)  528.9008
C     1.793182    0.331020   -0.069933   -0.649959   -0.055995    0.018186
C     1.495566   -0.973500    0.034723   -0.319804   -0.178749    0.025496
N     0.153306   -1.352063    0.100016   -0.007356   -0.755333    0.051893
C    -1.097577   -0.702221    0.081209    0.372263   -0.295800    0.013203
N    -0.795244    0.587175   -0.024067    0.157340   -0.033254    0.002885
C     0.532403    1.083327   -0.094801   -0.166854    0.555144   -0.040091
O    -2.177948   -1.296699    0.152293    0.219680    0.158222   -0.016786
O     0.475484    2.287410   -0.185825    0.269527    0.613538   -0.052803
H     2.197728   -1.827062    0.078449    0.114246    0.310774   -0.011548
H     0.024983   -2.355225    0.172964   -0.016966   -0.764900    0.066861
H    -1.492415    1.359827   -0.058473   -0.341055   -0.714884    0.040223
H     2.758290    0.841074   -0.134573   -0.497283   -0.415439    0.047672
12
* Frequency(10)  528.9008
C     1.834141    0.334549   -0.071079   -0.649959   -0.055995    0.018186
C     1.515719   -0.962236    0.033116   -0.319804   -0.178749    0.025496
N     0.153770   -1.304464    0.096746   -0.007356   -0.755333    0.051893
C    -1.121036   -0.683581    0.080377    0.372263   -0.295800    0.013203
N    -0.805159    0.589271   -0.024249    0.157340   -0.033254    0.002885
C     0.542918    1.048343   -0.092275   -0.166854    0.555144   -0.040091
O    -2.191791   -1.306670    0.153350    0.219680    0.158222   -0.016786
O     0.458499    2.248746   -0.182497    0.269527    0.613538   -0.052803
H     2.190528   -1.846646    0.079177    0.114246    0.310774   -0.011548
H     0.026052   -2.307023    0.168750   -0.016966   -0.764900    0.066861
H    -1.470922    1.404877   -0.061008   -0.341055   -0.714884    0.040223
H     2.789627    0.867254   -0.137578   -0.497283   -0.415439    0.047672
12
* Frequency(10)  528.9008
C     1.852524    0.336133   -0.071593   -0.649959   -0.055995    0.018186
C     1.524764   -0.957180    0.032395   -0.319804   -0.178749    0.025496
N     0.153978   -1.283100    0.095278   -0.007356   -0.755333    0.051893
C    -1.131565   -0.675214    0.080004    0.372263   -0.295800    0.013203
N    -0.809609    0.590211   -0.024331    0.157340   -0.033254    0.002885
C     0.547637    1.032642   -0.091141   -0.166854    0.555144   -0.040091
O    -2.198005   -1.311145    0.153825    0.219680    0.158222   -0.016786
O     0.450876    2.231393   -0.181004    0.269527    0.613538   -0.052803
H     2.187297   -1.855436    0.079503    0.114246    0.310774   -0.011548
H     0.026532   -2.285388    0.166859   -0.016966   -0.764900    0.066861
H    -1.461276    1.425096   -0.062145   -0.341055   -0.714884    0.040223
H     2.803692    0.879004   -0.138926   -0.497283   -0.415439    0.047672
12
* Frequency(10)  528.9008
C     1.846340    0.335600   -0.071420   -0.649959   -0.055995    0.018186
C     1.521721   -0.958881    0.032637   -0.319804   -0.178749    0.025496
N     0.153908   -1.290286    0.095772   -0.007356   -0.755333    0.051893
C    -1.128023   -0.678029    0.080130    0.372263   -0.295800    0.013203
N    -0.808112    0.589895   -0.024303    0.157340   -0.033254    0.002885
C     0.546049    1.037924   -0.091523   -0.166854    0.555144   -0.040091
O    -2.195915   -1.309640    0.153666    0.219680    0.158222   -0.016786
O     0.453440    2.237231   -0.181506    0.269527    0.613538   -0.052803
H     2.188384   -1.852479    0.079394    0.114246    0.310774   -0.011548
H     0.026371   -2.292666    0.167495   -0.016966   -0.764900    0.066861
H    -1.464521    1.418295   -0.061763   -0.341055   -0.714884    0.040223
H     2.798961    0.875051   -0.138472   -0.497283   -0.415439    0.047672
12
* Frequency(10)  528.9008
C     1.816259    0.333008   -0.070579   -0.649959   -0.055995    0.018186
C     1.506920   -0.967153    0.033817   -0.319804   -0.178749    0.025496
N     0.153567   -1.325245    0.098174   -0.007356   -0.755333    0.051893
C    -1.110794   -0.691719    0.080741    0.372263   -0.295800    0.013203
N    -0.800830    0.588356   -0.024170    0.157340   -0.033254    0.002885
C     0.538327    1.063617   -0.093378   -0.166854    0.555144   -0.040091
O    -2.185747   -1.302317    0.152889    0.219680    0.158222   -0.016786
O     0.465914    2.265626   -0.183950    0.269527    0.613538   -0.052803
H     2.193671   -1.838096    0.078859    0.114246    0.310774   -0.011548
H     0.025585   -2.328067    0.170590   -0.016966   -0.764900    0.066861
H    -1.480305    1.385208   -0.059901   -0.341055   -0.714884    0.040223
H     2.775946    0.855824   -0.136266   -0.497283   -0.415439    0.047672
12
* Frequency(10)  528.9008
C     1.765540    0.328639   -0.069160   -0.649959   -0.055995    0.018186
C     1.481965   -0.981102    0.035807   -0.319804   -0.178749    0.025496
N     0.152993   -1.384186    0.102223   -0.007356   -0.755333    0.051893
C    -1.081745   -0.714801    0.081771    0.372263   -0.295800    0.013203
N    -0.788552    0.585761   -0.023945    0.157340   -0.033254    0.002885
C     0.525307    1.106937   -0.096506   -0.166854    0.555144   -0.040091
O    -2.168605   -1.289970    0.151579    0.219680    0.158222   -0.016786
O     0.486947    2.313503   -0.188071    0.269527    0.613538   -0.052803
H     2.202586   -1.813845    0.077958    0.114246    0.310774   -0.011548
H     0.024262   -2.387755    0.175807   -0.016966   -0.764900    0.066861
H    -1.506919    1.329423   -0.056762   -0.341055   -0.714884    0.040223
H     2.737141    0.823406   -0.132546   -0.497283   -0.415439    0.047672
12
* Frequency(10)  528.9008
C     1.699680    0.322965   -0.067317   -0.649959   -0.055995    0.018186
C     1.449559   -0.999214    0.038390   -0.319804   -0.178749    0.025496
N     0.152248   -1.460724    0.107482   -0.007356   -0.755333    0.051893
C    -1.044023   -0.744775    0.083109    0.372263   -0.295800    0.013203
N    -0.772609    0.582391   -0.023652    0.157340   -0.033254    0.002885
C     0.508399    1.163189   -0.100569   -0.166854    0.555144   -0.040091
O    -2.146345   -1.273938    0.149878    0.219680    0.158222   -0.016786
O     0.514258    2.375673   -0.193421    0.269527    0.613538   -0.052803
H     2.214163   -1.782354    0.076788    0.114246    0.310774   -0.011548
H     0.022542   -2.465262    0.182582   -0.016966   -0.764900    0.066861
H    -1.541478    1.256984   -0.052687   -0.341055   -0.714884    0.040223
H     2.686751    0.781310   -0.127715   -0.497283   -0.415439    0.047672
12
* Frequency(10)  528.9008
C     1.625816    0.316601   -0.065250   -0.649959   -0.055995    0.018186
C     1.413215   -1.019528    0.041288   -0.319804   -0.178749    0.025496
N     0.151412   -1.546563    0.113379   -0.007356   -0.755333    0.051893
C    -1.001718   -0.778391    0.084609    0.372263   -0.295800    0.013203
N    -0.754728    0.578612   -0.023325    0.157340   -0.033254    0.002885
C     0.489437    1.226278   -0.105125   -0.166854    0.555144   -0.040091
O    -2.121379   -1.255957    0.147970    0.219680    0.158222   -0.016786
O     0.544888    2.445398   -0.199422    0.269527    0.613538   -0.052803
H     2.227146   -1.747036    0.075476    0.114246    0.310774   -0.011548
H     0.020614   -2.552189    0.190181   -0.016966   -0.764900    0.066861
H    -1.580237    1.175741   -0.048115   -0.341055   -0.714884    0.040223
H     2.630238    0.734097   -0.122298   -0.497283   -0.415439    0.047672
