12
* (null), Energy   -1000.0000000
C     1.321514    0.518496   -0.072777    0.025057   -0.140700    0.009897
C     1.109175   -0.817930    0.032797   -0.110703   -0.013078    0.003789
N    -0.152373   -1.344381    0.103578   -0.008836    0.123172   -0.008935
C    -1.303319   -0.575774    0.076278    0.104581   -0.317543    0.021296
N    -1.058010    0.780216   -0.032013   -0.265225   -0.140021    0.017347
C     0.185580    1.426809   -0.112240    0.160209   -0.051223   -0.000290
O    -2.424404   -1.053547    0.141169    0.079696    0.103287   -0.009862
O     0.240353    2.647240   -0.204710   -0.003639    0.135311   -0.010043
H     1.922616   -1.545424    0.067591    0.354651    0.536838   -0.050014
H    -0.283402   -2.349496    0.186263   -0.449293    0.188611   -0.002966
H    -1.883441    1.377385   -0.056304    0.837581    1.385624   -0.126231
H     2.325711    0.936406   -0.129663   -0.276434    0.562496   -0.035103
12
* Frequency(26) 1406.2209
C     1.324361    0.502506   -0.071652    0.025057   -0.140700    0.009897
C     1.096594   -0.819416    0.033228   -0.110703   -0.013078    0.003789
N    -0.153378   -1.330383    0.102563   -0.008836    0.123172   -0.008935
C    -1.291434   -0.611861    0.078698    0.104581   -0.317543    0.021296
N    -1.088152    0.764304   -0.030041   -0.265225   -0.140021    0.017347
C     0.203787    1.420987   -0.112273    0.160209   -0.051223   -0.000290
O    -2.415347   -1.041809    0.140048    0.079696    0.103287   -0.009862
O     0.239940    2.662617   -0.205852   -0.003639    0.135311   -0.010043
H     1.962920   -1.484415    0.061907    0.354651    0.536838   -0.050014
H    -0.334461   -2.328062    0.185926   -0.449293    0.188611   -0.002966
H    -1.788254    1.534854   -0.070650    0.837581    1.385624   -0.126231
H     2.294295    1.000331   -0.133652   -0.276434    0.562496   -0.035103
12
* Frequency(26) 1406.2209
C     1.326900    0.488249   -0.070649    0.025057   -0.140700    0.009897
C     1.085377   -0.820742    0.033612   -0.110703   -0.013078    0.003789
N    -0.154273   -1.317902    0.101657   -0.008836    0.123172   -0.008935
C    -1.280837   -0.644038    0.080856    0.104581   -0.317543    0.021296
N    -1.115027    0.750115   -0.028284   -0.265225   -0.140021    0.017347
C     0.220021    1.415797   -0.112302    0.160209   -0.051223   -0.000290
O    -2.407272   -1.031343    0.139049    0.079696    0.103287   -0.009862
O     0.239571    2.676328   -0.206869   -0.003639    0.135311   -0.010043
H     1.998857   -1.430017    0.056839    0.354651    0.536838   -0.050014
H    -0.379988   -2.308950    0.185626   -0.449293    0.188611   -0.002966
H    -1.703382    1.675259   -0.083441    0.837581    1.385624   -0.126231
H     2.266284    1.057328   -0.137209   -0.276434    0.562496   -0.035103
12
* Frequency(26) 1406.2209
C     1.328856    0.477270   -0.069877    0.025057   -0.140700    0.009897
C     1.076738   -0.821762    0.033907   -0.110703   -0.013078    0.003789
N    -0.154962   -1.308291    0.100960   -0.008836    0.123172   -0.008935
C    -1.272676   -0.668817    0.082518    0.104581   -0.317543    0.021296
N    -1.135723    0.739189   -0.026930   -0.265225   -0.140021    0.017347
C     0.232523    1.411800   -0.112325    0.160209   -0.051223   -0.000290
O    -2.401053   -1.023283    0.138279    0.079696    0.103287   -0.009862
O     0.239287    2.686887   -0.207653   -0.003639    0.135311   -0.010043
H     2.026532   -1.388126    0.052937    0.354651    0.536838   -0.050014
H    -0.415048   -2.294232    0.185394   -0.449293    0.188611   -0.002966
H    -1.638023    1.783384   -0.093291    0.837581    1.385624   -0.126231
H     2.244713    1.101222   -0.139949   -0.276434    0.562496   -0.035103
12
* Frequency(26) 1406.2209
C     1.330015    0.470758   -0.069419    0.025057   -0.140700    0.009897
C     1.071615   -0.822367    0.034083   -0.110703   -0.013078    0.003789
N    -0.155371   -1.302590    0.100547   -0.008836    0.123172   -0.008935
C    -1.267836   -0.683513    0.083504    0.104581   -0.317543    0.021296
N    -1.147998    0.732709   -0.026127   -0.265225   -0.140021    0.017347
C     0.239937    1.409429   -0.112338    0.160209   -0.051223   -0.000290
O    -2.397364   -1.018503    0.137823    0.079696    0.103287   -0.009862
O     0.239119    2.693150   -0.208118   -0.003639    0.135311   -0.010043
H     2.042946   -1.363280    0.050622    0.354651    0.536838   -0.050014
H    -0.435842   -2.285503    0.185257   -0.449293    0.188611   -0.002966
H    -1.599258    1.847514   -0.099133    0.837581    1.385624   -0.126231
H     2.231919    1.127256   -0.141573   -0.276434    0.562496   -0.035103
12
* Frequency(26) 1406.2209
C     1.330254    0.469419   -0.069325    0.025057   -0.140700    0.009897
C     1.070562   -0.822492    0.034119   -0.110703   -0.013078    0.003789
N    -0.155455   -1.301418    0.100462   -0.008836    0.123172   -0.008935
C    -1.266841   -0.686534    0.083706    0.104581   -0.317543    0.021296
N    -1.150522    0.731376   -0.025962   -0.265225   -0.140021    0.017347
C     0.241462    1.408942   -0.112341    0.160209   -0.051223   -0.000290
O    -2.396606   -1.017520    0.137729    0.079696    0.103287   -0.009862
O     0.239084    2.694437   -0.208213   -0.003639    0.135311   -0.010043
H     2.046320   -1.358172    0.050146    0.354651    0.536838   -0.050014
H    -0.440117   -2.283708    0.185229   -0.449293    0.188611   -0.002966
H    -1.591289    1.860697   -0.100334    0.837581    1.385624   -0.126231
H     2.229289    1.132607   -0.141907   -0.276434    0.562496   -0.035103
12
* Frequency(26) 1406.2209
C     1.329545    0.473399   -0.069605    0.025057   -0.140700    0.009897
C     1.073693   -0.822122    0.034012   -0.110703   -0.013078    0.003789
N    -0.155205   -1.304902    0.100714   -0.008836    0.123172   -0.008935
C    -1.269799   -0.677553    0.083104    0.104581   -0.317543    0.021296
N    -1.143020    0.735337   -0.026453   -0.265225   -0.140021    0.017347
C     0.236930    1.410390   -0.112333    0.160209   -0.051223   -0.000290
O    -2.398860   -1.020441    0.138008    0.079696    0.103287   -0.009862
O     0.239187    2.690610   -0.207929   -0.003639    0.135311   -0.010043
H     2.036289   -1.373356    0.051561    0.354651    0.536838   -0.050014
H    -0.427409   -2.289043    0.185313   -0.449293    0.188611   -0.002966
H    -1.614979    1.821506   -0.096764    0.837581    1.385624   -0.126231
H     2.237108    1.116698   -0.140914   -0.276434    0.562496   -0.035103
12
* Frequency(26) 1406.2209
C     1.327966    0.482266   -0.070228    0.025057   -0.140700    0.009897
C     1.080669   -0.821298    0.033773   -0.110703   -0.013078    0.003789
N    -0.154649   -1.312664    0.101277   -0.008836    0.123172   -0.008935
C    -1.276389   -0.657542    0.081762    0.104581   -0.317543    0.021296
N    -1.126306    0.744160   -0.027546   -0.265225   -0.140021    0.017347
C     0.226834    1.413618   -0.112314    0.160209   -0.051223   -0.000290
O    -2.403883   -1.026950    0.138629    0.079696    0.103287   -0.009862
O     0.239416    2.682083   -0.207296   -0.003639    0.135311   -0.010043
H     2.013940   -1.407186    0.054712    0.354651    0.536838   -0.050014
H    -0.399096   -2.300928    0.185500   -0.449293    0.188611   -0.002966
H    -1.667761    1.734188   -0.088809    0.837581    1.385624   -0.126231
H     2.254528    1.081251   -0.138702   -0.276434    0.562496   -0.035103
12
* Frequency(26) 1406.2209
C     1.325688    0.495058   -0.071128    0.025057   -0.140700    0.009897
C     1.090734   -0.820109    0.033428   -0.110703   -0.013078    0.003789
N    -0.153845   -1.323863    0.102090   -0.008836    0.123172   -0.008935
C    -1.285898   -0.628671    0.079826    0.104581   -0.317543    0.021296
N    -1.102192    0.756891   -0.029123   -0.265225   -0.140021    0.017347
C     0.212268    1.418276   -0.112288    0.160209   -0.051223   -0.000290
O    -2.411129   -1.036341    0.139526    0.079696    0.103287   -0.009862
O     0.239747    2.669780   -0.206383   -0.003639    0.135311   -0.010043
H     1.981694   -1.455997    0.059260    0.354651    0.536838   -0.050014
H    -0.358246   -2.318077    0.185769   -0.449293    0.188611   -0.002966
H    -1.743915    1.608205   -0.077332    0.837581    1.385624   -0.126231
H     2.279662    1.030108   -0.135511   -0.276434    0.562496   -0.035103
12
* Frequency(26) 1406.2209
C     1.322957    0.510391   -0.072207    0.025057   -0.140700    0.009897
C     1.102798   -0.818683    0.033015   -0.110703   -0.013078    0.003789
N    -0.152882   -1.337285    0.103064   -0.008836    0.123172   -0.008935
C    -1.297294   -0.594067    0.077505    0.104581   -0.317543    0.021296
N    -1.073289    0.772150   -0.031013   -0.265225   -0.140021    0.017347
C     0.194809    1.423858   -0.112256    0.160209   -0.051223   -0.000290
O    -2.419813   -1.047597    0.140601    0.079696    0.103287   -0.009862
O     0.240144    2.655035   -0.205289   -0.003639    0.135311   -0.010043
H     1.943047   -1.514498    0.064710    0.354651    0.536838   -0.050014
H    -0.309284   -2.338631    0.186092   -0.449293    0.188611   -0.002966
H    -1.835189    1.457208   -0.063576    0.837581    1.385624   -0.126231
H     2.309786    0.968811   -0.131685   -0.276434    0.562496   -0.035103
12
* Frequency(26) 1406.2209
C     1.320070    0.526602   -0.073347    0.025057   -0.140700    0.009897
C     1.115553   -0.817177    0.032579   -0.110703   -0.013078    0.003789
N    -0.151864   -1.351477    0.104093   -0.008836    0.123172   -0.008935
C    -1.309344   -0.557481    0.075051    0.104581   -0.317543    0.021296
N    -1.042731    0.788283   -0.033012   -0.265225   -0.140021    0.017347
C     0.176350    1.429759   -0.112223    0.160209   -0.051223   -0.000290
O    -2.428996   -1.059497    0.141737    0.079696    0.103287   -0.009862
O     0.240563    2.639445   -0.204132   -0.003639    0.135311   -0.010043
H     1.902185   -1.576350    0.070472    0.354651    0.536838   -0.050014
H    -0.257519   -2.360362    0.186434   -0.449293    0.188611   -0.002966
H    -1.931692    1.297562   -0.049033    0.837581    1.385624   -0.126231
H     2.341636    0.904002   -0.127641   -0.276434    0.562496   -0.035103
12
* Frequency(26) 1406.2209
C     1.317340    0.541934   -0.074425    0.025057   -0.140700    0.009897
C     1.127616   -0.815751    0.032166   -0.110703   -0.013078    0.003789
N    -0.150902   -1.364899    0.105067   -0.008836    0.123172   -0.008935
C    -1.320740   -0.522877    0.072731    0.104581   -0.317543    0.021296
N    -1.013829    0.803541   -0.034902   -0.265225   -0.140021    0.017347
C     0.158892    1.435341   -0.112191    0.160209   -0.051223   -0.000290
O    -2.437680   -1.070752    0.142812    0.079696    0.103287   -0.009862
O     0.240960    2.624700   -0.203037   -0.003639    0.135311   -0.010043
H     1.863538   -1.634851    0.075922    0.354651    0.536838   -0.050014
H    -0.208558   -2.380916    0.186757   -0.449293    0.188611   -0.002966
H    -2.022966    1.146566   -0.035277    0.837581    1.385624   -0.126231
H     2.371760    0.842705   -0.123816   -0.276434    0.562496   -0.035103
12
* Frequency(26) 1406.2209
C     1.315062    0.554727   -0.075325    0.025057   -0.140700    0.009897
C     1.137682   -0.814562    0.031821   -0.110703   -0.013078    0.003789
N    -0.150098   -1.376098    0.105879   -0.008836    0.123172   -0.008935
C    -1.330249   -0.494006    0.070794    0.104581   -0.317543    0.021296
N    -0.989714    0.816272   -0.036479   -0.265225   -0.140021    0.017347
C     0.144325    1.439999   -0.112165    0.160209   -0.051223   -0.000290
O    -2.444926   -1.080143    0.143708    0.079696    0.103287   -0.009862
O     0.241290    2.612397   -0.202124   -0.003639    0.135311   -0.010043
H     1.831292   -1.683662    0.080470    0.354651    0.536838   -0.050014
H    -0.167707   -2.398064    0.187027   -0.449293    0.188611   -0.002966
H    -2.099121    1.020582   -0.023800    0.837581    1.385624   -0.126231
H     2.396894    0.791561   -0.120624   -0.276434    0.562496   -0.035103
12
* Frequency(26) 1406.2209
C     1.313483    0.563594   -0.075949    0.025057   -0.140700    0.009897
C     1.144658   -0.813738    0.031583   -0.110703   -0.013078    0.003789
N    -0.149541   -1.383860    0.106442   -0.008836    0.123172   -0.008935
C    -1.336839   -0.473995    0.069452    0.104581   -0.317543    0.021296
N    -0.973000    0.825096   -0.037573   -0.265225   -0.140021    0.017347
C     0.134229    1.443227   -0.112147    0.160209   -0.051223   -0.000290
O    -2.449948   -1.086652    0.144330    0.079696    0.103287   -0.009862
O     0.241520    2.603870   -0.201491   -0.003639    0.135311   -0.010043
H     1.808943   -1.717492    0.083621    0.354651    0.536838   -0.050014
H    -0.139394   -2.409950    0.187214   -0.449293    0.188611   -0.002966
H    -2.151903    0.933264   -0.015845    0.837581    1.385624   -0.126231
H     2.414314    0.756114   -0.118412   -0.276434    0.562496   -0.035103
12
* Frequency(26) 1406.2209
C     1.312774    0.567573   -0.076229    0.025057   -0.140700    0.009897
C     1.147789   -0.813368    0.031476   -0.110703   -0.013078    0.003789
N    -0.149292   -1.387344    0.106695   -0.008836    0.123172   -0.008935
C    -1.339797   -0.465014    0.068850    0.104581   -0.317543    0.021296
N    -0.965498    0.829056   -0.038063   -0.265225   -0.140021    0.017347
C     0.129698    1.444675   -0.112138    0.160209   -0.051223   -0.000290
O    -2.452203   -1.089574    0.144609    0.079696    0.103287   -0.009862
O     0.241623    2.600043   -0.201207   -0.003639    0.135311   -0.010043
H     1.798912   -1.732676    0.085036    0.354651    0.536838   -0.050014
H    -0.126686   -2.415285    0.187298   -0.449293    0.188611   -0.002966
H    -2.175593    0.894073   -0.012274    0.837581    1.385624   -0.126231
H     2.422132    0.740205   -0.117419   -0.276434    0.562496   -0.035103
12
* Frequency(26) 1406.2209
C     1.313012    0.566234   -0.076135    0.025057   -0.140700    0.009897
C     1.146736   -0.813493    0.031512   -0.110703   -0.013078    0.003789
N    -0.149376   -1.386172    0.106610   -0.008836    0.123172   -0.008935
C    -1.338802   -0.468035    0.069053    0.104581   -0.317543    0.021296
N    -0.968022    0.827724   -0.037898   -0.265225   -0.140021    0.017347
C     0.131222    1.444188   -0.112141    0.160209   -0.051223   -0.000290
O    -2.451444   -1.088591    0.144515    0.079696    0.103287   -0.009862
O     0.241588    2.601330   -0.201303   -0.003639    0.135311   -0.010043
H     1.802287   -1.727568    0.084560    0.354651    0.536838   -0.050014
H    -0.130961   -2.413490    0.187269   -0.449293    0.188611   -0.002966
H    -2.167624    0.907257   -0.013475    0.837581    1.385624   -0.126231
H     2.419502    0.745557   -0.117753   -0.276434    0.562496   -0.035103
12
* Frequency(26) 1406.2209
C     1.314172    0.559723   -0.075677    0.025057   -0.140700    0.009897
C     1.141612   -0.814098    0.031687   -0.110703   -0.013078    0.003789
N    -0.149785   -1.380472    0.106196   -0.008836    0.123172   -0.008935
C    -1.333962   -0.482731    0.070038    0.104581   -0.317543    0.021296
N    -0.980297    0.821244   -0.037095   -0.265225   -0.140021    0.017347
C     0.138637    1.441817   -0.112155    0.160209   -0.051223   -0.000290
O    -2.447756   -1.083811    0.144058    0.079696    0.103287   -0.009862
O     0.241420    2.607593   -0.201767   -0.003639    0.135311   -0.010043
H     1.818701   -1.702722    0.082245    0.354651    0.536838   -0.050014
H    -0.151755   -2.404761    0.187132   -0.449293    0.188611   -0.002966
H    -2.128859    0.971386   -0.019318    0.837581    1.385624   -0.126231
H     2.406708    0.771590   -0.119378   -0.276434    0.562496   -0.035103
12
* Frequency(26) 1406.2209
C     1.316127    0.548743   -0.074904    0.025057   -0.140700    0.009897
C     1.132974   -0.815119    0.031983   -0.110703   -0.013078    0.003789
N    -0.150474   -1.370860    0.105499   -0.008836    0.123172   -0.008935
C    -1.325801   -0.507510    0.071700    0.104581   -0.317543    0.021296
N    -1.000994    0.810317   -0.035742   -0.265225   -0.140021    0.017347
C     0.151139    1.437820   -0.112177    0.160209   -0.051223   -0.000290
O    -2.441537   -1.075751    0.143289    0.079696    0.103287   -0.009862
O     0.241136    2.618152   -0.202551   -0.003639    0.135311   -0.010043
H     1.846375   -1.660830    0.078343    0.354651    0.536838   -0.050014
H    -0.186815   -2.390043    0.186901   -0.449293    0.188611   -0.002966
H    -2.063499    1.079511   -0.029168    0.837581    1.385624   -0.126231
H     2.385137    0.815484   -0.122117   -0.276434    0.562496   -0.035103
12
* Frequency(26) 1406.2209
C     1.318666    0.534486   -0.073901    0.025057   -0.140700    0.009897
C     1.121756   -0.816444    0.032367   -0.110703   -0.013078    0.003789
N    -0.151369   -1.358379    0.104594   -0.008836    0.123172   -0.008935
C    -1.315204   -0.539687    0.073858    0.104581   -0.317543    0.021296
N    -1.027869    0.796129   -0.033984   -0.265225   -0.140021    0.017347
C     0.167373    1.432630   -0.112207    0.160209   -0.051223   -0.000290
O    -2.433461   -1.065285    0.142290    0.079696    0.103287   -0.009862
O     0.240767    2.631863   -0.203569   -0.003639    0.135311   -0.010043
H     1.882312   -1.606433    0.073275    0.354651    0.536838   -0.050014
H    -0.232342   -2.370931    0.186600   -0.449293    0.188611   -0.002966
H    -1.978627    1.219916   -0.041959    0.837581    1.385624   -0.126231
H     2.357126    0.872481   -0.125674   -0.276434    0.562496   -0.035103
12
* Frequency(26) 1406.2209
C     1.321514    0.518496   -0.072777    0.025057   -0.140700    0.009897
C     1.109175   -0.817930    0.032797   -0.110703   -0.013078    0.003789
N    -0.152373   -1.344381    0.103578   -0.008836    0.123172   -0.008935
C    -1.303319   -0.575774    0.076278    0.104581   -0.317543    0.021296
N    -1.058010    0.780216   -0.032013   -0.265225   -0.140021    0.017347
C     0.185580    1.426809   -0.112240    0.160209   -0.051223   -0.000290
O    -2.424404   -1.053547    0.141169    0.079696    0.103287   -0.009862
O     0.240353    2.647240   -0.204710   -0.003639    0.135311   -0.010043
H     1.922616   -1.545424    0.067591    0.354651    0.536838   -0.050014
H    -0.283402   -2.349496    0.186263   -0.449293    0.188611   -0.002966
H    -1.883441    1.377385   -0.056304    0.837581    1.385624   -0.126231
H     2.325711    0.936406   -0.129663   -0.276434    0.562496   -0.035103
