12
* (null), Energy   -1000.0000000
C     1.321514    0.518496   -0.072777   -0.020154    0.042991   -0.002793
C     1.109175   -0.817930    0.032797    0.139216    0.017227   -0.004728
N    -0.152373   -1.344381    0.103578   -0.115864   -0.034217    0.005900
C    -1.303319   -0.575774    0.076278   -0.030084    0.154289   -0.010667
N    -1.058010    0.780216   -0.032013   -0.037636   -0.155147    0.012597
C     0.185580    1.426809   -0.112240    0.086485    0.023432   -0.004121
O    -2.424404   -1.053547    0.141169    0.008943   -0.013385    0.000694
O     0.240353    2.647240   -0.204710    0.006194   -0.015113    0.000989
H     1.922616   -1.545424    0.067591    1.028374    1.000897   -0.103530
H    -0.283402   -2.349496    0.186263   -1.175863    0.093366    0.019562
H    -1.883441    1.377385   -0.056304   -0.226949   -0.424463    0.037841
H     2.325711    0.936406   -0.129663    0.176449   -0.421319    0.028199
12
* Frequency(23) 1194.8207
C     1.319223    0.523382   -0.073094   -0.020154    0.042991   -0.002793
C     1.124996   -0.815972    0.032260    0.139216    0.017227   -0.004728
N    -0.165541   -1.348270    0.104249   -0.115864   -0.034217    0.005900
C    -1.306738   -0.558240    0.075066   -0.030084    0.154289   -0.010667
N    -1.062287    0.762585   -0.030581   -0.037636   -0.155147    0.012597
C     0.195408    1.429471   -0.112708    0.086485    0.023432   -0.004121
O    -2.423388   -1.055068    0.141248    0.008943   -0.013385    0.000694
O     0.241057    2.645522   -0.204598    0.006194   -0.015113    0.000989
H     2.039486   -1.431677    0.055825    1.028374    1.000897   -0.103530
H    -0.417032   -2.338886    0.188486   -1.175863    0.093366    0.019562
H    -1.909232    1.329147   -0.052004   -0.226949   -0.424463    0.037841
H     2.345763    0.888525   -0.126459    0.176449   -0.421319    0.028199
12
* Frequency(23) 1194.8207
C     1.317181    0.527738   -0.073377   -0.020154    0.042991   -0.002793
C     1.139103   -0.814227    0.031781    0.139216    0.017227   -0.004728
N    -0.177281   -1.351737    0.104847   -0.115864   -0.034217    0.005900
C    -1.309786   -0.542606    0.073985   -0.030084    0.154289   -0.010667
N    -1.066101    0.746864   -0.029305   -0.037636   -0.155147    0.012597
C     0.204172    1.431846   -0.113125    0.086485    0.023432   -0.004121
O    -2.422482   -1.056424    0.141318    0.008943   -0.013385    0.000694
O     0.241685    2.643991   -0.204498    0.006194   -0.015113    0.000989
H     2.143690   -1.330257    0.045335    1.028374    1.000897   -0.103530
H    -0.536182   -2.329425    0.190469   -1.175863    0.093366    0.019562
H    -1.932229    1.286136   -0.048170   -0.226949   -0.424463    0.037841
H     2.363643    0.845833   -0.123601    0.176449   -0.421319    0.028199
12
* Frequency(23) 1194.8207
C     1.315608    0.531093   -0.073595   -0.020154    0.042991   -0.002793
C     1.149967   -0.812883    0.031412    0.139216    0.017227   -0.004728
N    -0.186323   -1.354407    0.105307   -0.115864   -0.034217    0.005900
C    -1.312134   -0.530566    0.073153   -0.030084    0.154289   -0.010667
N    -1.069038    0.734757   -0.028322   -0.037636   -0.155147    0.012597
C     0.210921    1.433674   -0.113447    0.086485    0.023432   -0.004121
O    -2.421784   -1.057468    0.141372    0.008943   -0.013385    0.000694
O     0.242168    2.642812   -0.204421    0.006194   -0.015113    0.000989
H     2.223938   -1.252153    0.037256    1.028374    1.000897   -0.103530
H    -0.627939   -2.322140    0.191995   -1.175863    0.093366    0.019562
H    -1.949939    1.253014   -0.045217   -0.226949   -0.424463    0.037841
H     2.377412    0.812956   -0.121401    0.176449   -0.421319    0.028199
12
* Frequency(23) 1194.8207
C     1.314676    0.533083   -0.073724   -0.020154    0.042991   -0.002793
C     1.156410   -0.812085    0.031193    0.139216    0.017227   -0.004728
N    -0.191685   -1.355991    0.105580   -0.115864   -0.034217    0.005900
C    -1.313526   -0.523425    0.072659   -0.030084    0.154289   -0.010667
N    -1.070780    0.727576   -0.027739   -0.037636   -0.155147    0.012597
C     0.214923    1.434759   -0.113638    0.086485    0.023432   -0.004121
O    -2.421370   -1.058088    0.141404    0.008943   -0.013385    0.000694
O     0.242455    2.642112   -0.204375    0.006194   -0.015113    0.000989
H     2.271533   -1.205830    0.032464    1.028374    1.000897   -0.103530
H    -0.682360   -2.317818    0.192900   -1.175863    0.093366    0.019562
H    -1.960442    1.233369   -0.043465   -0.226949   -0.424463    0.037841
H     2.385578    0.793457   -0.120096    0.176449   -0.421319    0.028199
12
* Frequency(23) 1194.8207
C     1.314484    0.533492   -0.073751   -0.020154    0.042991   -0.002793
C     1.157735   -0.811921    0.031148    0.139216    0.017227   -0.004728
N    -0.192787   -1.356316    0.105636   -0.115864   -0.034217    0.005900
C    -1.313813   -0.521957    0.072558   -0.030084    0.154289   -0.010667
N    -1.071138    0.726100   -0.027619   -0.037636   -0.155147    0.012597
C     0.215746    1.434982   -0.113677    0.086485    0.023432   -0.004121
O    -2.421285   -1.058215    0.141411    0.008943   -0.013385    0.000694
O     0.242514    2.641969   -0.204365    0.006194   -0.015113    0.000989
H     2.281318   -1.196307    0.031479    1.028374    1.000897   -0.103530
H    -0.693548   -2.316930    0.193086   -1.175863    0.093366    0.019562
H    -1.962601    1.229331   -0.043105   -0.226949   -0.424463    0.037841
H     2.387257    0.789448   -0.119827    0.176449   -0.421319    0.028199
12
* Frequency(23) 1194.8207
C     1.315054    0.532276   -0.073672   -0.020154    0.042991   -0.002793
C     1.153797   -0.812409    0.031282    0.139216    0.017227   -0.004728
N    -0.189510   -1.355348    0.105469   -0.115864   -0.034217    0.005900
C    -1.312962   -0.526321    0.072859   -0.030084    0.154289   -0.010667
N    -1.070073    0.730489   -0.027975   -0.037636   -0.155147    0.012597
C     0.213300    1.434319   -0.113560    0.086485    0.023432   -0.004121
O    -2.421538   -1.057837    0.141391    0.008943   -0.013385    0.000694
O     0.242339    2.642396   -0.204393    0.006194   -0.015113    0.000989
H     2.252231   -1.224616    0.034407    1.028374    1.000897   -0.103530
H    -0.660290   -2.319571    0.192533   -1.175863    0.093366    0.019562
H    -1.956182    1.241336   -0.044176   -0.226949   -0.424463    0.037841
H     2.382266    0.801365   -0.120625    0.176449   -0.421319    0.028199
12
* Frequency(23) 1194.8207
C     1.316324    0.529567   -0.073496   -0.020154    0.042991   -0.002793
C     1.145024   -0.813494    0.031580    0.139216    0.017227   -0.004728
N    -0.182209   -1.353192    0.105098   -0.115864   -0.034217    0.005900
C    -1.311066   -0.536044    0.073532   -0.030084    0.154289   -0.010667
N    -1.067701    0.740265   -0.028769   -0.037636   -0.155147    0.012597
C     0.207850    1.432842   -0.113301    0.086485    0.023432   -0.004121
O    -2.422102   -1.056993    0.141348    0.008943   -0.013385    0.000694
O     0.241948    2.643348   -0.204456    0.006194   -0.015113    0.000989
H     2.187426   -1.287690    0.040932    1.028374    1.000897   -0.103530
H    -0.586190   -2.325454    0.191300   -1.175863    0.093366    0.019562
H    -1.941881    1.268085   -0.046560   -0.226949   -0.424463    0.037841
H     2.371147    0.827915   -0.122402    0.176449   -0.421319    0.028199
12
* Frequency(23) 1194.8207
C     1.318156    0.525658   -0.073242   -0.020154    0.042991   -0.002793
C     1.132366   -0.815060    0.032010    0.139216    0.017227   -0.004728
N    -0.171674   -1.350081    0.104561   -0.115864   -0.034217    0.005900
C    -1.308331   -0.550072    0.074501   -0.030084    0.154289   -0.010667
N    -1.064280    0.754372   -0.029914   -0.037636   -0.155147    0.012597
C     0.199987    1.430712   -0.112926    0.086485    0.023432   -0.004121
O    -2.422915   -1.055776    0.141284    0.008943   -0.013385    0.000694
O     0.241385    2.644722   -0.204546    0.006194   -0.015113    0.000989
H     2.093924   -1.378693    0.050345    1.028374    1.000897   -0.103530
H    -0.479279   -2.333943    0.189522   -1.175863    0.093366    0.019562
H    -1.921246    1.306677   -0.050001   -0.226949   -0.424463    0.037841
H     2.355104    0.866222   -0.124966    0.176449   -0.421319    0.028199
12
* Frequency(23) 1194.8207
C     1.320353    0.520973   -0.072938   -0.020154    0.042991   -0.002793
C     1.117195   -0.816938    0.032525    0.139216    0.017227   -0.004728
N    -0.159048   -1.346352    0.103918   -0.115864   -0.034217    0.005900
C    -1.305052   -0.566886    0.075664   -0.030084    0.154289   -0.010667
N    -1.060178    0.771279   -0.031287   -0.037636   -0.155147    0.012597
C     0.190562    1.428158   -0.112477    0.086485    0.023432   -0.004121
O    -2.423889   -1.054318    0.141209    0.008943   -0.013385    0.000694
O     0.240710    2.646369   -0.204653    0.006194   -0.015113    0.000989
H     1.981859   -1.487764    0.061627    1.028374    1.000897   -0.103530
H    -0.351141   -2.344118    0.187390   -1.175863    0.093366    0.019562
H    -1.896515    1.352933   -0.054124   -0.226949   -0.424463    0.037841
H     2.335876    0.912135   -0.128039    0.176449   -0.421319    0.028199
12
* Frequency(23) 1194.8207
C     1.322675    0.516020   -0.072616   -0.020154    0.042991   -0.002793
C     1.101155   -0.818922    0.033070    0.139216    0.017227   -0.004728
N    -0.145699   -1.342410    0.103238   -0.115864   -0.034217    0.005900
C    -1.301586   -0.584662    0.076893   -0.030084    0.154289   -0.010667
N    -1.055842    0.789154   -0.032738   -0.037636   -0.155147    0.012597
C     0.180598    1.425459   -0.112002    0.086485    0.023432   -0.004121
O    -2.424920   -1.052776    0.141129    0.008943   -0.013385    0.000694
O     0.239997    2.648111   -0.204767    0.006194   -0.015113    0.000989
H     1.863373   -1.603084    0.073555    1.028374    1.000897   -0.103530
H    -0.215662   -2.354875    0.185136   -1.175863    0.093366    0.019562
H    -1.870367    1.401838   -0.058484   -0.226949   -0.424463    0.037841
H     2.315546    0.960678   -0.131288    0.176449   -0.421319    0.028199
12
* Frequency(23) 1194.8207
C     1.324871    0.511335   -0.072312   -0.020154    0.042991   -0.002793
C     1.085984   -0.820800    0.033585    0.139216    0.017227   -0.004728
N    -0.133073   -1.338681    0.102596   -0.115864   -0.034217    0.005900
C    -1.298308   -0.601476    0.078055   -0.030084    0.154289   -0.010667
N    -1.051741    0.806061   -0.034111   -0.037636   -0.155147    0.012597
C     0.171173    1.422905   -0.111553    0.086485    0.023432   -0.004121
O    -2.425894   -1.051317    0.141053    0.008943   -0.013385    0.000694
O     0.239322    2.649757   -0.204875    0.006194   -0.015113    0.000989
H     1.751308   -1.712155    0.084837    1.028374    1.000897   -0.103530
H    -0.087524   -2.365049    0.183005   -1.175863    0.093366    0.019562
H    -1.845635    1.448093   -0.062608   -0.226949   -0.424463    0.037841
H     2.296318    1.006590   -0.134361    0.176449   -0.421319    0.028199
12
* Frequency(23) 1194.8207
C     1.326704    0.507426   -0.072058   -0.020154    0.042991   -0.002793
C     1.073327   -0.822366    0.034015    0.139216    0.017227   -0.004728
N    -0.122538   -1.335570    0.102059   -0.115864   -0.034217    0.005900
C    -1.295572   -0.615504    0.079025   -0.030084    0.154289   -0.010667
N    -1.048319    0.820167   -0.035256   -0.037636   -0.155147    0.012597
C     0.163310    1.420775   -0.111179    0.086485    0.023432   -0.004121
O    -2.426707   -1.050100    0.140990    0.008943   -0.013385    0.000694
O     0.238759    2.651131   -0.204965    0.006194   -0.015113    0.000989
H     1.657806   -1.803158    0.094250    1.028374    1.000897   -0.103530
H     0.019387   -2.373538    0.181226   -1.175863    0.093366    0.019562
H    -1.825001    1.486686   -0.066049   -0.226949   -0.424463    0.037841
H     2.280275    1.044897   -0.136925    0.176449   -0.421319    0.028199
12
* Frequency(23) 1194.8207
C     1.327974    0.504717   -0.071882   -0.020154    0.042991   -0.002793
C     1.064554   -0.823452    0.034313    0.139216    0.017227   -0.004728
N    -0.115236   -1.333414    0.101687   -0.115864   -0.034217    0.005900
C    -1.293677   -0.625227    0.079697   -0.030084    0.154289   -0.010667
N    -1.045947    0.829944   -0.036050   -0.037636   -0.155147    0.012597
C     0.157860    1.419298   -0.110919    0.086485    0.023432   -0.004121
O    -2.427271   -1.049257    0.140946    0.008943   -0.013385    0.000694
O     0.238368    2.652084   -0.205027    0.006194   -0.015113    0.000989
H     1.593001   -1.866232    0.100775    1.028374    1.000897   -0.103530
H     0.093487   -2.379422    0.179993   -1.175863    0.093366    0.019562
H    -1.810699    1.513434   -0.068433   -0.226949   -0.424463    0.037841
H     2.269155    1.071448   -0.138702    0.176449   -0.421319    0.028199
12
* Frequency(23) 1194.8207
C     1.328544    0.503501   -0.071803   -0.020154    0.042991   -0.002793
C     1.060616   -0.823939    0.034446    0.139216    0.017227   -0.004728
N    -0.111959   -1.332446    0.101520   -0.115864   -0.034217    0.005900
C    -1.292826   -0.629591    0.079999   -0.030084    0.154289   -0.010667
N    -1.044883    0.834332   -0.036407   -0.037636   -0.155147    0.012597
C     0.155414    1.418635   -0.110802    0.086485    0.023432   -0.004121
O    -2.427524   -1.048878    0.140927    0.008943   -0.013385    0.000694
O     0.238193    2.652511   -0.205055    0.006194   -0.015113    0.000989
H     1.563915   -1.894541    0.103703    1.028374    1.000897   -0.103530
H     0.126745   -2.382063    0.179440   -1.175863    0.093366    0.019562
H    -1.804280    1.525440   -0.069503   -0.226949   -0.424463    0.037841
H     2.264165    1.083364   -0.139499    0.176449   -0.421319    0.028199
12
* Frequency(23) 1194.8207
C     1.328352    0.503910   -0.071829   -0.020154    0.042991   -0.002793
C     1.061941   -0.823775    0.034401    0.139216    0.017227   -0.004728
N    -0.113062   -1.332772    0.101577   -0.115864   -0.034217    0.005900
C    -1.293112   -0.628123    0.079897   -0.030084    0.154289   -0.010667
N    -1.045241    0.832856   -0.036287   -0.037636   -0.155147    0.012597
C     0.156236    1.418858   -0.110842    0.086485    0.023432   -0.004121
O    -2.427439   -1.049005    0.140933    0.008943   -0.013385    0.000694
O     0.238252    2.652367   -0.205046    0.006194   -0.015113    0.000989
H     1.573699   -1.885018    0.102718    1.028374    1.000897   -0.103530
H     0.115557   -2.381175    0.179626   -1.175863    0.093366    0.019562
H    -1.806439    1.521401   -0.069143   -0.226949   -0.424463    0.037841
H     2.265843    1.079356   -0.139231    0.176449   -0.421319    0.028199
12
* Frequency(23) 1194.8207
C     1.327419    0.505900   -0.071959   -0.020154    0.042991   -0.002793
C     1.068384   -0.822978    0.034183    0.139216    0.017227   -0.004728
N    -0.118424   -1.334355    0.101850   -0.115864   -0.034217    0.005900
C    -1.294504   -0.620982    0.079404   -0.030084    0.154289   -0.010667
N    -1.046983    0.825676   -0.035704   -0.037636   -0.155147    0.012597
C     0.160239    1.419943   -0.111032    0.086485    0.023432   -0.004121
O    -2.427025   -1.049625    0.140965    0.008943   -0.013385    0.000694
O     0.238539    2.651668   -0.205000    0.006194   -0.015113    0.000989
H     1.621294   -1.838695    0.097926    1.028374    1.000897   -0.103530
H     0.061136   -2.376853    0.180532   -1.175863    0.093366    0.019562
H    -1.816943    1.501756   -0.067392   -0.226949   -0.424463    0.037841
H     2.274010    1.059856   -0.137926    0.176449   -0.421319    0.028199
12
* Frequency(23) 1194.8207
C     1.325846    0.509254   -0.072176   -0.020154    0.042991   -0.002793
C     1.079247   -0.821633    0.033814    0.139216    0.017227   -0.004728
N    -0.127466   -1.337025    0.102310   -0.115864   -0.034217    0.005900
C    -1.296852   -0.608942    0.078571   -0.030084    0.154289   -0.010667
N    -1.049919    0.813569   -0.034721   -0.037636   -0.155147    0.012597
C     0.166988    1.421771   -0.111354    0.086485    0.023432   -0.004121
O    -2.426327   -1.050669    0.141019    0.008943   -0.013385    0.000694
O     0.239022    2.650489   -0.204923    0.006194   -0.015113    0.000989
H     1.701542   -1.760591    0.089847    1.028374    1.000897   -0.103530
H    -0.030621   -2.369568    0.182058   -1.175863    0.093366    0.019562
H    -1.834653    1.468634   -0.064439   -0.226949   -0.424463    0.037841
H     2.287779    1.026979   -0.135725    0.176449   -0.421319    0.028199
12
* Frequency(23) 1194.8207
C     1.323804    0.513611   -0.072459   -0.020154    0.042991   -0.002793
C     1.093354   -0.819888    0.033335    0.139216    0.017227   -0.004728
N    -0.139206   -1.340493    0.102908   -0.115864   -0.034217    0.005900
C    -1.299900   -0.593308    0.077490   -0.030084    0.154289   -0.010667
N    -1.053733    0.797848   -0.033444   -0.037636   -0.155147    0.012597
C     0.175751    1.424146   -0.111771    0.086485    0.023432   -0.004121
O    -2.425421   -1.052026    0.141090    0.008943   -0.013385    0.000694
O     0.239650    2.648957   -0.204823    0.006194   -0.015113    0.000989
H     1.805747   -1.659171    0.079357    1.028374    1.000897   -0.103530
H    -0.149771   -2.360107    0.184040   -1.175863    0.093366    0.019562
H    -1.857649    1.425623   -0.060605   -0.226949   -0.424463    0.037841
H     2.305658    0.984287   -0.132868    0.176449   -0.421319    0.028199
12
* Frequency(23) 1194.8207
C     1.321514    0.518496   -0.072777   -0.020154    0.042991   -0.002793
C     1.109175   -0.817930    0.032797    0.139216    0.017227   -0.004728
N    -0.152373   -1.344381    0.103578   -0.115864   -0.034217    0.005900
C    -1.303319   -0.575774    0.076278   -0.030084    0.154289   -0.010667
N    -1.058010    0.780216   -0.032013   -0.037636   -0.155147    0.012597
C     0.185580    1.426809   -0.112240    0.086485    0.023432   -0.004121
O    -2.424404   -1.053547    0.141169    0.008943   -0.013385    0.000694
O     0.240353    2.647240   -0.204710    0.006194   -0.015113    0.000989
H     1.922616   -1.545424    0.067591    1.028374    1.000897   -0.103530
H    -0.283402   -2.349496    0.186263   -1.175863    0.093366    0.019562
H    -1.883441    1.377385   -0.056304   -0.226949   -0.424463    0.037841
H     2.325711    0.936406   -0.129663    0.176449   -0.421319    0.028199
