12
* (null), Energy   -1000.0000000
C     1.321514    0.518496   -0.072777   -0.083103    0.246473   -0.016369
C     1.109175   -0.817930    0.032797    0.022934   -0.038522    0.002216
N    -0.152373   -1.344381    0.103578    0.036878    0.009127   -0.001720
C    -1.303319   -0.575774    0.076278   -0.478885   -0.244428    0.031007
N    -1.058010    0.780216   -0.032013    0.086349    0.230025   -0.019580
C     0.185580    1.426809   -0.112240    0.091952   -1.179531    0.085881
O    -2.424404   -1.053547    0.141169    0.273722    0.112448   -0.015540
O     0.240353    2.647240   -0.204710    0.007603    0.674816   -0.050519
H     1.922616   -1.545424    0.067591    0.027881   -0.053884    0.002953
H    -0.283402   -2.349496    0.186263   -0.313989    0.033489    0.005840
H    -1.883441    1.377385   -0.056304   -0.727957   -0.878546    0.083356
H     2.325711    0.936406   -0.129663    0.164049   -0.430181    0.028163
12
* Frequency(30) 1749.1326
C     1.312070    0.546507   -0.074637   -0.083103    0.246473   -0.016369
C     1.111782   -0.822308    0.033049    0.022934   -0.038522    0.002216
N    -0.148182   -1.343344    0.103383    0.036878    0.009127   -0.001720
C    -1.357742   -0.603552    0.079802   -0.478885   -0.244428    0.031007
N    -1.048197    0.806358   -0.034238    0.086349    0.230025   -0.019580
C     0.196030    1.292761   -0.102480    0.091952   -1.179531    0.085881
O    -2.393297   -1.040768    0.139403    0.273722    0.112448   -0.015540
O     0.241218    2.723929   -0.210451    0.007603    0.674816   -0.050519
H     1.925785   -1.551548    0.067927    0.027881   -0.053884    0.002953
H    -0.319085   -2.345691    0.186927   -0.313989    0.033489    0.005840
H    -1.966169    1.277543   -0.046831   -0.727957   -0.878546    0.083356
H     2.344354    0.887518   -0.126463    0.164049   -0.430181    0.028163
12
* Frequency(30) 1749.1326
C     1.303649    0.571482   -0.076296   -0.083103    0.246473   -0.016369
C     1.114106   -0.826211    0.033274    0.022934   -0.038522    0.002216
N    -0.144446   -1.342419    0.103209    0.036878    0.009127   -0.001720
C    -1.406267   -0.628320    0.082944   -0.478885   -0.244428    0.031007
N    -1.039447    0.829666   -0.036222    0.086349    0.230025   -0.019580
C     0.205347    1.173239   -0.093777    0.091952   -1.179531    0.085881
O    -2.365561   -1.029373    0.137828    0.273722    0.112448   -0.015540
O     0.241988    2.792308   -0.215570    0.007603    0.674816   -0.050519
H     1.928610   -1.557008    0.068226    0.027881   -0.053884    0.002953
H    -0.350901   -2.342297    0.187519   -0.313989    0.033489    0.005840
H    -2.039933    1.188520   -0.038385   -0.727957   -0.878546    0.083356
H     2.360977    0.843928   -0.123609    0.164049   -0.430181    0.028163
12
* Frequency(30) 1749.1326
C     1.297164    0.590715   -0.077573   -0.083103    0.246473   -0.016369
C     1.115895   -0.829217    0.033446    0.022934   -0.038522    0.002216
N    -0.141568   -1.341707    0.103074    0.036878    0.009127   -0.001720
C    -1.443636   -0.647394    0.085364   -0.478885   -0.244428    0.031007
N    -1.032709    0.847616   -0.037750    0.086349    0.230025   -0.019580
C     0.212522    1.081196   -0.087076    0.091952   -1.179531    0.085881
O    -2.344202   -1.020599    0.136616    0.273722    0.112448   -0.015540
O     0.242581    2.844966   -0.219513    0.007603    0.674816   -0.050519
H     1.930786   -1.561213    0.068456    0.027881   -0.053884    0.002953
H    -0.375403   -2.339684    0.187974   -0.313989    0.033489    0.005840
H    -2.096738    1.119964   -0.031880   -0.727957   -0.878546    0.083356
H     2.373778    0.810360   -0.121411    0.164049   -0.430181    0.028163
12
* Frequency(30) 1749.1326
C     1.293318    0.602122   -0.078331   -0.083103    0.246473   -0.016369
C     1.116957   -0.831000    0.033549    0.022934   -0.038522    0.002216
N    -0.139861   -1.341285    0.102995    0.036878    0.009127   -0.001720
C    -1.465800   -0.658706    0.086799   -0.478885   -0.244428    0.031007
N    -1.028713    0.858262   -0.038656    0.086349    0.230025   -0.019580
C     0.216778    1.026605   -0.083101    0.091952   -1.179531    0.085881
O    -2.331533   -1.015394    0.135896    0.273722    0.112448   -0.015540
O     0.242933    2.876198   -0.221851    0.007603    0.674816   -0.050519
H     1.932076   -1.563706    0.068593    0.027881   -0.053884    0.002953
H    -0.389935   -2.338134    0.188245   -0.313989    0.033489    0.005840
H    -2.130429    1.079303   -0.028022   -0.727957   -0.878546    0.083356
H     2.381371    0.790450   -0.120108    0.164049   -0.430181    0.028163
12
* Frequency(30) 1749.1326
C     1.292527    0.604467   -0.078486   -0.083103    0.246473   -0.016369
C     1.117175   -0.831367    0.033570    0.022934   -0.038522    0.002216
N    -0.139510   -1.341198    0.102978    0.036878    0.009127   -0.001720
C    -1.470356   -0.661032    0.087094   -0.478885   -0.244428    0.031007
N    -1.027891    0.860450   -0.038842    0.086349    0.230025   -0.019580
C     0.217653    1.015383   -0.082284    0.091952   -1.179531    0.085881
O    -2.328929   -1.014324    0.135748    0.273722    0.112448   -0.015540
O     0.243005    2.882619   -0.222331    0.007603    0.674816   -0.050519
H     1.932341   -1.564219    0.068621    0.027881   -0.053884    0.002953
H    -0.392922   -2.337815    0.188300   -0.313989    0.033489    0.005840
H    -2.137355    1.070944   -0.027229   -0.727957   -0.878546    0.083356
H     2.382932    0.786357   -0.119840    0.164049   -0.430181    0.028163
12
* Frequency(30) 1749.1326
C     1.294877    0.597496   -0.078023   -0.083103    0.246473   -0.016369
C     1.116526   -0.830277    0.033507    0.022934   -0.038522    0.002216
N    -0.140553   -1.341456    0.103027    0.036878    0.009127   -0.001720
C    -1.456812   -0.654118    0.086217   -0.478885   -0.244428    0.031007
N    -1.030333    0.853944   -0.038289    0.086349    0.230025   -0.019580
C     0.215052    1.048744   -0.084713    0.091952   -1.179531    0.085881
O    -2.336671   -1.017505    0.136188    0.273722    0.112448   -0.015540
O     0.242790    2.863532   -0.220903    0.007603    0.674816   -0.050519
H     1.931553   -1.562695    0.068537    0.027881   -0.053884    0.002953
H    -0.384041   -2.338763    0.188135   -0.313989    0.033489    0.005840
H    -2.116766    1.095793   -0.029587   -0.727957   -0.878546    0.083356
H     2.378292    0.798524   -0.120636    0.164049   -0.430181    0.028163
12
* Frequency(30) 1749.1326
C     1.300114    0.581964   -0.076992   -0.083103    0.246473   -0.016369
C     1.115081   -0.827849    0.033368    0.022934   -0.038522    0.002216
N    -0.142877   -1.342031    0.103135    0.036878    0.009127   -0.001720
C    -1.426634   -0.638715    0.084263   -0.478885   -0.244428    0.031007
N    -1.035775    0.839449   -0.037055    0.086349    0.230025   -0.019580
C     0.209258    1.123075   -0.090125    0.091952   -1.179531    0.085881
O    -2.353920   -1.024591    0.137167    0.273722    0.112448   -0.015540
O     0.242311    2.821007   -0.217719    0.007603    0.674816   -0.050519
H     1.929796   -1.559299    0.068351    0.027881   -0.053884    0.002953
H    -0.364255   -2.340873    0.187767   -0.313989    0.033489    0.005840
H    -2.070892    1.151157   -0.034840   -0.727957   -0.878546    0.083356
H     2.367954    0.825633   -0.122411    0.164049   -0.430181    0.028163
12
* Frequency(30) 1749.1326
C     1.307670    0.559554   -0.075504   -0.083103    0.246473   -0.016369
C     1.112996   -0.824347    0.033166    0.022934   -0.038522    0.002216
N    -0.146230   -1.342861    0.103292    0.036878    0.009127   -0.001720
C    -1.383093   -0.616491    0.081443   -0.478885   -0.244428    0.031007
N    -1.043626    0.818534   -0.035274    0.086349    0.230025   -0.019580
C     0.200897    1.230320   -0.097933    0.091952   -1.179531    0.085881
O    -2.378807   -1.034815    0.138580    0.273722    0.112448   -0.015540
O     0.241620    2.759652   -0.213126    0.007603    0.674816   -0.050519
H     1.927261   -1.554400    0.068083    0.027881   -0.053884    0.002953
H    -0.335706   -2.343918    0.187236   -0.313989    0.033489    0.005840
H    -2.004705    1.231036   -0.042419   -0.727957   -0.878546    0.083356
H     2.353038    0.864746   -0.124972    0.164049   -0.430181    0.028163
12
* Frequency(30) 1749.1326
C     1.316726    0.532695   -0.073720   -0.083103    0.246473   -0.016369
C     1.110496   -0.820149    0.032925    0.022934   -0.038522    0.002216
N    -0.150249   -1.343855    0.103479    0.036878    0.009127   -0.001720
C    -1.330907   -0.589855    0.078065   -0.478885   -0.244428    0.031007
N    -1.053036    0.793468   -0.033141    0.086349    0.230025   -0.019580
C     0.190877    1.358858   -0.107292    0.091952   -1.179531    0.085881
O    -2.408636   -1.047069    0.140274    0.273722    0.112448   -0.015540
O     0.240791    2.686115   -0.207620    0.007603    0.674816   -0.050519
H     1.924222   -1.548528    0.067761    0.027881   -0.053884    0.002953
H    -0.301490   -2.347567    0.186600   -0.313989    0.033489    0.005840
H    -1.925377    1.326774   -0.051502   -0.727957   -0.878546    0.083356
H     2.335161    0.911624   -0.128041    0.164049   -0.430181    0.028163
12
* Frequency(30) 1749.1326
C     1.326301    0.504297   -0.071834   -0.083103    0.246473   -0.016369
C     1.107854   -0.815711    0.032670    0.022934   -0.038522    0.002216
N    -0.154498   -1.344907    0.103677    0.036878    0.009127   -0.001720
C    -1.275731   -0.561693    0.074492   -0.478885   -0.244428    0.031007
N    -1.062985    0.766965   -0.030885    0.086349    0.230025   -0.019580
C     0.180283    1.494759   -0.117187    0.091952   -1.179531    0.085881
O    -2.440173   -1.060025    0.142064    0.273722    0.112448   -0.015540
O     0.239915    2.608365   -0.201800    0.007603    0.674816   -0.050519
H     1.921010   -1.542320    0.067421    0.027881   -0.053884    0.002953
H    -0.265313   -2.351426    0.185927   -0.313989    0.033489    0.005840
H    -1.841505    1.427997   -0.061106   -0.727957   -0.878546    0.083356
H     2.316260    0.961188   -0.131286    0.164049   -0.430181    0.028163
12
* Frequency(30) 1749.1326
C     1.335357    0.477438   -0.070050   -0.083103    0.246473   -0.016369
C     1.105355   -0.811513    0.032428    0.022934   -0.038522    0.002216
N    -0.158517   -1.345902    0.103865    0.036878    0.009127   -0.001720
C    -1.223546   -0.535057    0.071113   -0.478885   -0.244428    0.031007
N    -1.072394    0.741898   -0.028751    0.086349    0.230025   -0.019580
C     0.170262    1.623297   -0.126546    0.091952   -1.179531    0.085881
O    -2.470001   -1.072278    0.143757    0.273722    0.112448   -0.015540
O     0.239087    2.534828   -0.196295    0.007603    0.674816   -0.050519
H     1.917972   -1.536448    0.067099    0.027881   -0.053884    0.002953
H    -0.231097   -2.355075    0.185291   -0.313989    0.033489    0.005840
H    -1.762177    1.523735   -0.070190   -0.727957   -0.878546    0.083356
H     2.298383    1.008066   -0.134355    0.164049   -0.430181    0.028163
12
* Frequency(30) 1749.1326
C     1.342913    0.455029   -0.068562   -0.083103    0.246473   -0.016369
C     1.103270   -0.808011    0.032227    0.022934   -0.038522    0.002216
N    -0.161870   -1.346731    0.104021    0.036878    0.009127   -0.001720
C    -1.180005   -0.512833    0.068294   -0.478885   -0.244428    0.031007
N    -1.080245    0.720984   -0.026971    0.086349    0.230025   -0.019580
C     0.161902    1.730542   -0.134354    0.091952   -1.179531    0.085881
O    -2.494889   -1.082502    0.145170    0.273722    0.112448   -0.015540
O     0.238396    2.473473   -0.191701    0.007603    0.674816   -0.050519
H     1.915437   -1.531549    0.066831    0.027881   -0.053884    0.002953
H    -0.202548   -2.358120    0.184760   -0.313989    0.033489    0.005840
H    -1.695989    1.603614   -0.077769   -0.727957   -0.878546    0.083356
H     2.283468    1.047179   -0.136915    0.164049   -0.430181    0.028163
12
* Frequency(30) 1749.1326
C     1.348150    0.439497   -0.067530   -0.083103    0.246473   -0.016369
C     1.101824   -0.805583    0.032087    0.022934   -0.038522    0.002216
N    -0.164194   -1.347307    0.104130    0.036878    0.009127   -0.001720
C    -1.149827   -0.497430    0.066340   -0.478885   -0.244428    0.031007
N    -1.085687    0.706488   -0.025737    0.086349    0.230025   -0.019580
C     0.156107    1.804873   -0.139766    0.091952   -1.179531    0.085881
O    -2.512138   -1.089588    0.146150    0.273722    0.112448   -0.015540
O     0.237916    2.430948   -0.188518    0.007603    0.674816   -0.050519
H     1.913680   -1.528153    0.066645    0.027881   -0.053884    0.002953
H    -0.182762   -2.360230    0.184392   -0.313989    0.033489    0.005840
H    -1.650116    1.658977   -0.083022   -0.727957   -0.878546    0.083356
H     2.273130    1.074288   -0.138690    0.164049   -0.430181    0.028163
12
* Frequency(30) 1749.1326
C     1.350501    0.432525   -0.067067   -0.083103    0.246473   -0.016369
C     1.101176   -0.804494    0.032024    0.022934   -0.038522    0.002216
N    -0.165237   -1.347565    0.104178    0.036878    0.009127   -0.001720
C    -1.136282   -0.490516    0.065463   -0.478885   -0.244428    0.031007
N    -1.088129    0.699982   -0.025183    0.086349    0.230025   -0.019580
C     0.153507    1.838234   -0.142195    0.091952   -1.179531    0.085881
O    -2.519880   -1.092769    0.146589    0.273722    0.112448   -0.015540
O     0.237701    2.411861   -0.187089    0.007603    0.674816   -0.050519
H     1.912891   -1.526629    0.066561    0.027881   -0.053884    0.002953
H    -0.173881   -2.361178    0.184226   -0.313989    0.033489    0.005840
H    -1.629526    1.683826   -0.085380   -0.727957   -0.878546    0.083356
H     2.268490    1.086455   -0.139487    0.164049   -0.430181    0.028163
12
* Frequency(30) 1749.1326
C     1.349710    0.434871   -0.067223   -0.083103    0.246473   -0.016369
C     1.101394   -0.804860    0.032045    0.022934   -0.038522    0.002216
N    -0.164886   -1.347478    0.104162    0.036878    0.009127   -0.001720
C    -1.140838   -0.492842    0.065758   -0.478885   -0.244428    0.031007
N    -1.087308    0.702171   -0.025369    0.086349    0.230025   -0.019580
C     0.154382    1.827012   -0.141378    0.091952   -1.179531    0.085881
O    -2.517275   -1.091699    0.146441    0.273722    0.112448   -0.015540
O     0.237774    2.418282   -0.187570    0.007603    0.674816   -0.050519
H     1.913156   -1.527142    0.066589    0.027881   -0.053884    0.002953
H    -0.176868   -2.360859    0.184282   -0.313989    0.033489    0.005840
H    -1.636452    1.675467   -0.084586   -0.727957   -0.878546    0.083356
H     2.270051    1.082362   -0.139219    0.164049   -0.430181    0.028163
12
* Frequency(30) 1749.1326
C     1.345864    0.446278   -0.067980   -0.083103    0.246473   -0.016369
C     1.102455   -0.806643    0.032148    0.022934   -0.038522    0.002216
N    -0.163179   -1.347055    0.104082    0.036878    0.009127   -0.001720
C    -1.163002   -0.504154    0.067193   -0.478885   -0.244428    0.031007
N    -1.083311    0.712817   -0.026275    0.086349    0.230025   -0.019580
C     0.158637    1.772421   -0.137403    0.091952   -1.179531    0.085881
O    -2.504607   -1.086495    0.145722    0.273722    0.112448   -0.015540
O     0.238126    2.449513   -0.189908    0.007603    0.674816   -0.050519
H     1.914447   -1.529635    0.066726    0.027881   -0.053884    0.002953
H    -0.191400   -2.359309    0.184552   -0.313989    0.033489    0.005840
H    -1.670143    1.634806   -0.080729   -0.727957   -0.878546    0.083356
H     2.277643    1.062453   -0.137915    0.164049   -0.430181    0.028163
12
* Frequency(30) 1749.1326
C     1.339379    0.465511   -0.069258   -0.083103    0.246473   -0.016369
C     1.104245   -0.809649    0.032321    0.022934   -0.038522    0.002216
N    -0.160301   -1.346343    0.103948    0.036878    0.009127   -0.001720
C    -1.200371   -0.523228    0.069613   -0.478885   -0.244428    0.031007
N    -1.076573    0.730767   -0.027803    0.086349    0.230025   -0.019580
C     0.165813    1.680378   -0.130702    0.091952   -1.179531    0.085881
O    -2.483248   -1.077720    0.144509    0.273722    0.112448   -0.015540
O     0.238719    2.502172   -0.193850    0.007603    0.674816   -0.050519
H     1.916622   -1.533840    0.066956    0.027881   -0.053884    0.002953
H    -0.215902   -2.356696    0.185008   -0.313989    0.033489    0.005840
H    -1.726949    1.566250   -0.074224   -0.727957   -0.878546    0.083356
H     2.290444    1.028884   -0.135718    0.164049   -0.430181    0.028163
12
* Frequency(30) 1749.1326
C     1.330958    0.490486   -0.070916   -0.083103    0.246473   -0.016369
C     1.106569   -0.813552    0.032545    0.022934   -0.038522    0.002216
N    -0.156564   -1.345418    0.103774    0.036878    0.009127   -0.001720
C    -1.248896   -0.547996    0.072754   -0.478885   -0.244428    0.031007
N    -1.067823    0.754075   -0.029787    0.086349    0.230025   -0.019580
C     0.175130    1.560856   -0.122000    0.091952   -1.179531    0.085881
O    -2.455511   -1.066326    0.142935    0.273722    0.112448   -0.015540
O     0.239489    2.570551   -0.198969    0.007603    0.674816   -0.050519
H     1.919448   -1.539300    0.067255    0.027881   -0.053884    0.002953
H    -0.247718   -2.353302    0.185600   -0.313989    0.033489    0.005840
H    -1.800712    1.477227   -0.065777   -0.727957   -0.878546    0.083356
H     2.307067    0.985294   -0.132864    0.164049   -0.430181    0.028163
12
* Frequency(30) 1749.1326
C     1.321514    0.518496   -0.072777   -0.083103    0.246473   -0.016369
C     1.109175   -0.817930    0.032797    0.022934   -0.038522    0.002216
N    -0.152373   -1.344381    0.103578    0.036878    0.009127   -0.001720
C    -1.303319   -0.575774    0.076278   -0.478885   -0.244428    0.031007
N    -1.058010    0.780216   -0.032013    0.086349    0.230025   -0.019580
C     0.185580    1.426809   -0.112240    0.091952   -1.179531    0.085881
O    -2.424404   -1.053547    0.141169    0.273722    0.112448   -0.015540
O     0.240353    2.647240   -0.204710    0.007603    0.674816   -0.050519
H     1.922616   -1.545424    0.067591    0.027881   -0.053884    0.002953
H    -0.283402   -2.349496    0.186263   -0.313989    0.033489    0.005840
H    -1.883441    1.377385   -0.056304   -0.727957   -0.878546    0.083356
H     2.325711    0.936406   -0.129663    0.164049   -0.430181    0.028163
