12
* (null), Energy   -1000.0000000
C     1.321514    0.518496   -0.072777   -0.650517   -0.056709    0.022115
C     1.109175   -0.817930    0.032797   -0.315584   -0.180345    0.019754
N    -0.152373   -1.344381    0.103578   -0.005506   -0.753061    0.054236
C    -1.303319   -0.575774    0.076278    0.373955   -0.290865    0.010908
N    -1.058010    0.780216   -0.032013    0.153154   -0.032765    0.000179
C     0.185580    1.426809   -0.112240   -0.169852    0.551304   -0.034845
O    -2.424404   -1.053547    0.141169    0.222020    0.161816   -0.018093
O     0.240353    2.647240   -0.204710    0.268228    0.607873   -0.053263
H     1.922616   -1.545424    0.067591    0.124961    0.316022   -0.027743
H    -0.283402   -2.349496    0.186263   -0.028317   -0.758769    0.093490
H    -1.883441    1.377385   -0.056304   -0.350482   -0.720070    0.056741
H     2.325711    0.936406   -0.129663   -0.499369   -0.412642    0.040270
12
* Frequency(10)  528.6500
C     1.247586    0.512052   -0.070264   -0.650517   -0.056709    0.022115
C     1.073311   -0.838425    0.035042   -0.315584   -0.180345    0.019754
N    -0.152999   -1.429963    0.109742   -0.005506   -0.753061    0.054236
C    -1.260821   -0.608829    0.077518    0.373955   -0.290865    0.010908
N    -1.040605    0.776493   -0.031992    0.153154   -0.032765    0.000179
C     0.166277    1.489461   -0.116200   -0.169852    0.551304   -0.034845
O    -2.399173   -1.035157    0.139113    0.222020    0.161816   -0.018093
O     0.270836    2.716321   -0.210763    0.268228    0.607873   -0.053263
H     1.936817   -1.509510    0.064438    0.124961    0.316022   -0.027743
H    -0.286620   -2.435727    0.196888   -0.028317   -0.758769    0.093490
H    -1.923271    1.295553   -0.049856   -0.350482   -0.720070    0.056741
H     2.268960    0.889512   -0.125087   -0.499369   -0.412642    0.040270
12
* Frequency(10)  528.6500
C     1.181669    0.506305   -0.068023   -0.650517   -0.056709    0.022115
C     1.041333   -0.856700    0.037044   -0.315584   -0.180345    0.019754
N    -0.153557   -1.506270    0.115238   -0.005506   -0.753061    0.054236
C    -1.222928   -0.638302    0.078623    0.373955   -0.290865    0.010908
N    -1.025086    0.773173   -0.031974    0.153154   -0.032765    0.000179
C     0.149066    1.545325   -0.119730   -0.169852    0.551304   -0.034845
O    -2.376676   -1.018760    0.137279    0.222020    0.161816   -0.018093
O     0.298016    2.777917   -0.216160    0.268228    0.607873   -0.053263
H     1.949480   -1.477487    0.061627    0.124961    0.316022   -0.027743
H    -0.289489   -2.512612    0.206361   -0.028317   -0.758769    0.093490
H    -1.958785    1.222588   -0.044107   -0.350482   -0.720070    0.056741
H     2.218359    0.847699   -0.121006   -0.499369   -0.412642    0.040270
12
* Frequency(10)  528.6500
C     1.130907    0.501880   -0.066297   -0.650517   -0.056709    0.022115
C     1.016707   -0.870773    0.038585   -0.315584   -0.180345    0.019754
N    -0.153987   -1.565034    0.119470   -0.005506   -0.753061    0.054236
C    -1.193747   -0.661000    0.079474    0.373955   -0.290865    0.010908
N    -1.013135    0.770616   -0.031960    0.153154   -0.032765    0.000179
C     0.135812    1.588345   -0.122449   -0.169852    0.551304   -0.034845
O    -2.359351   -1.006133    0.135867    0.222020    0.161816   -0.018093
O     0.318946    2.825352   -0.220317    0.268228    0.607873   -0.053263
H     1.959231   -1.452827    0.059462    0.124961    0.316022   -0.027743
H    -0.291699   -2.571822    0.213657   -0.028317   -0.758769    0.093490
H    -1.986135    1.166399   -0.039679   -0.350482   -0.720070    0.056741
H     2.179391    0.815499   -0.117864   -0.499369   -0.412642    0.040270
12
* Frequency(10)  528.6500
C     1.100800    0.499255   -0.065274   -0.650517   -0.056709    0.022115
C     1.002101   -0.879119    0.039500   -0.315584   -0.180345    0.019754
N    -0.154242   -1.599887    0.121980   -0.005506   -0.753061    0.054236
C    -1.176440   -0.674461    0.079979    0.373955   -0.290865    0.010908
N    -1.006046    0.769099   -0.031952    0.153154   -0.032765    0.000179
C     0.127951    1.613861   -0.124062   -0.169852    0.551304   -0.034845
O    -2.349075   -0.998644    0.135030    0.222020    0.161816   -0.018093
O     0.331361    2.853485   -0.222782    0.268228    0.607873   -0.053263
H     1.965014   -1.438201    0.058178    0.124961    0.316022   -0.027743
H    -0.293009   -2.606939    0.217983   -0.028317   -0.758769    0.093490
H    -2.002356    1.133072   -0.037053   -0.350482   -0.720070    0.056741
H     2.156280    0.796401   -0.116000   -0.499369   -0.412642    0.040270
12
* Frequency(10)  528.6500
C     1.094610    0.498716   -0.065063   -0.650517   -0.056709    0.022115
C     0.999098   -0.880835    0.039688   -0.315584   -0.180345    0.019754
N    -0.154294   -1.607052    0.122496   -0.005506   -0.753061    0.054236
C    -1.172882   -0.677229    0.080083    0.373955   -0.290865    0.010908
N    -1.004589    0.768788   -0.031950    0.153154   -0.032765    0.000179
C     0.126335    1.619106   -0.124394   -0.169852    0.551304   -0.034845
O    -2.346963   -0.997105    0.134858    0.222020    0.161816   -0.018093
O     0.333913    2.859269   -0.223289    0.268228    0.607873   -0.053263
H     1.966203   -1.435194    0.057914    0.124961    0.316022   -0.027743
H    -0.293279   -2.614159    0.218873   -0.028317   -0.758769    0.093490
H    -2.005690    1.126221   -0.036513   -0.350482   -0.720070    0.056741
H     2.151528    0.792475   -0.115617   -0.499369   -0.412642    0.040270
12
* Frequency(10)  528.6500
C     1.113010    0.500320   -0.065689   -0.650517   -0.056709    0.022115
C     1.008024   -0.875734    0.039129   -0.315584   -0.180345    0.019754
N    -0.154138   -1.585753    0.120962   -0.005506   -0.753061    0.054236
C    -1.183459   -0.669002    0.079774    0.373955   -0.290865    0.010908
N    -1.008921    0.769714   -0.031955    0.153154   -0.032765    0.000179
C     0.131139    1.603513   -0.123408   -0.169852    0.551304   -0.034845
O    -2.353242   -1.001681    0.135369    0.222020    0.161816   -0.018093
O     0.326326    2.842076   -0.221782    0.268228    0.607873   -0.053263
H     1.962669   -1.444132    0.058699    0.124961    0.316022   -0.027743
H    -0.292478   -2.592698    0.216229   -0.028317   -0.758769    0.093490
H    -1.995777    1.146588   -0.038118   -0.350482   -0.720070    0.056741
H     2.165653    0.804146   -0.116756   -0.499369   -0.412642    0.040270
12
* Frequency(10)  528.6500
C     1.154003    0.503893   -0.067082   -0.650517   -0.056709    0.022115
C     1.027911   -0.864370    0.037884   -0.315584   -0.180345    0.019754
N    -0.153791   -1.538297    0.117544   -0.005506   -0.753061    0.054236
C    -1.207024   -0.650673    0.079087    0.373955   -0.290865    0.010908
N    -1.018572    0.771779   -0.031966    0.153154   -0.032765    0.000179
C     0.141842    1.568771   -0.121212   -0.169852    0.551304   -0.034845
O    -2.367233   -1.011879    0.136510    0.222020    0.161816   -0.018093
O     0.309423    2.803769   -0.218426    0.268228    0.607873   -0.053263
H     1.954794   -1.464047    0.060447    0.124961    0.316022   -0.027743
H    -0.290693   -2.544882    0.210337   -0.028317   -0.758769    0.093490
H    -1.973691    1.191965   -0.041694   -0.350482   -0.720070    0.056741
H     2.197121    0.830149   -0.119294   -0.499369   -0.412642    0.040270
12
* Frequency(10)  528.6500
C     1.213150    0.509050   -0.069093   -0.650517   -0.056709    0.022115
C     1.056605   -0.847972    0.036088   -0.315584   -0.180345    0.019754
N    -0.153291   -1.469827    0.112613   -0.005506   -0.753061    0.054236
C    -1.241025   -0.624227    0.078095    0.373955   -0.290865    0.010908
N    -1.032497    0.774758   -0.031983    0.153154   -0.032765    0.000179
C     0.157286    1.518646   -0.118044   -0.169852    0.551304   -0.034845
O    -2.387420   -1.026591    0.138155    0.222020    0.161816   -0.018093
O     0.285035    2.748500   -0.213583    0.268228    0.607873   -0.053263
H     1.943432   -1.492780    0.062969    0.124961    0.316022   -0.027743
H    -0.288119   -2.475893    0.201837   -0.028317   -0.758769    0.093490
H    -1.941825    1.257435   -0.046852   -0.350482   -0.720070    0.056741
H     2.242525    0.867668   -0.122955   -0.499369   -0.412642    0.040270
12
* Frequency(10)  528.6500
C     1.284039    0.515229   -0.071503   -0.650517   -0.056709    0.022115
C     1.090995   -0.828319    0.033935   -0.315584   -0.180345    0.019754
N    -0.152691   -1.387764    0.106703   -0.005506   -0.753061    0.054236
C    -1.281776   -0.592530    0.076907    0.373955   -0.290865    0.010908
N    -1.049187    0.778329   -0.032002    0.153154   -0.032765    0.000179
C     0.175795    1.458568   -0.114247   -0.169852    0.551304   -0.034845
O    -2.411614   -1.044225    0.140126    0.222020    0.161816   -0.018093
O     0.255806    2.682258   -0.207779    0.268228    0.607873   -0.053263
H     1.929815   -1.527219    0.065993    0.124961    0.316022   -0.027743
H    -0.285033   -2.393208    0.191649   -0.028317   -0.758769    0.093490
H    -1.903631    1.335903   -0.053036   -0.350482   -0.720070    0.056741
H     2.296943    0.912635   -0.127343   -0.499369   -0.412642    0.040270
12
* Frequency(10)  528.6500
C     1.358989    0.521763   -0.074051   -0.650517   -0.056709    0.022115
C     1.127355   -0.807541    0.031659   -0.315584   -0.180345    0.019754
N    -0.152056   -1.300999    0.100454   -0.005506   -0.753061    0.054236
C    -1.324862   -0.559018    0.075650    0.373955   -0.290865    0.010908
N    -1.066833    0.782104   -0.032023    0.153154   -0.032765    0.000179
C     0.195365    1.395049   -0.110232   -0.169852    0.551304   -0.034845
O    -2.437195   -1.062869    0.142211    0.222020    0.161816   -0.018093
O     0.224901    2.612221   -0.201642    0.268228    0.607873   -0.053263
H     1.915417   -1.563629    0.069189    0.124961    0.316022   -0.027743
H    -0.281770   -2.305785    0.180878   -0.028317   -0.758769    0.093490
H    -1.863250    1.418867   -0.059573   -0.350482   -0.720070    0.056741
H     2.354479    0.960178   -0.131983   -0.499369   -0.412642    0.040270
12
* Frequency(10)  528.6500
C     1.429878    0.527943   -0.076461   -0.650517   -0.056709    0.022115
C     1.161746   -0.787888    0.029506   -0.315584   -0.180345    0.019754
N    -0.151456   -1.218935    0.094544   -0.005506   -0.753061    0.054236
C    -1.365613   -0.527321    0.074461    0.373955   -0.290865    0.010908
N    -1.083523    0.785674   -0.032042    0.153154   -0.032765    0.000179
C     0.213874    1.334971   -0.106435   -0.169852    0.551304   -0.034845
O    -2.461389   -1.080502    0.144183    0.222020    0.161816   -0.018093
O     0.195672    2.545979   -0.195838    0.268228    0.607873   -0.053263
H     1.901800   -1.598067    0.072212    0.124961    0.316022   -0.027743
H    -0.278684   -2.223100    0.170690   -0.028317   -0.758769    0.093490
H    -1.825057    1.497336   -0.065756   -0.350482   -0.720070    0.056741
H     2.408897    1.005145   -0.136371   -0.499369   -0.412642    0.040270
12
* Frequency(10)  528.6500
C     1.489024    0.533099   -0.078471   -0.650517   -0.056709    0.022115
C     1.190439   -0.771491    0.027710   -0.315584   -0.180345    0.019754
N    -0.150955   -1.150465    0.089612   -0.005506   -0.753061    0.054236
C    -1.399614   -0.500875    0.073469    0.373955   -0.290865    0.010908
N    -1.097448    0.788653   -0.032059    0.153154   -0.032765    0.000179
C     0.229317    1.284846   -0.103267   -0.169852    0.551304   -0.034845
O    -2.481575   -1.095215    0.145828    0.222020    0.161816   -0.018093
O     0.171284    2.490711   -0.190995    0.268228    0.607873   -0.053263
H     1.890438   -1.626801    0.074735    0.124961    0.316022   -0.027743
H    -0.276110   -2.154111    0.162189   -0.028317   -0.758769    0.093490
H    -1.793190    1.562806   -0.070915   -0.350482   -0.720070    0.056741
H     2.454300    1.042663   -0.140033   -0.499369   -0.412642    0.040270
12
* Frequency(10)  528.6500
C     1.530018    0.536673   -0.079865   -0.650517   -0.056709    0.022115
C     1.210326   -0.760126    0.026465   -0.315584   -0.180345    0.019754
N    -0.150608   -1.103010    0.086195   -0.005506   -0.753061    0.054236
C    -1.423179   -0.482546    0.072782    0.373955   -0.290865    0.010908
N    -1.107099    0.790718   -0.032070    0.153154   -0.032765    0.000179
C     0.240021    1.250104   -0.101071   -0.169852    0.551304   -0.034845
O    -2.495567   -1.105412    0.146968    0.222020    0.161816   -0.018093
O     0.154381    2.452404   -0.187638    0.268228    0.607873   -0.053263
H     1.882564   -1.646716    0.076483    0.124961    0.316022   -0.027743
H    -0.274325   -2.106295    0.156298   -0.028317   -0.758769    0.093490
H    -1.771104    1.608183   -0.074491   -0.350482   -0.720070    0.056741
H     2.485769    1.068666   -0.142571   -0.499369   -0.412642    0.040270
12
* Frequency(10)  528.6500
C     1.548417    0.538277   -0.080490   -0.650517   -0.056709    0.022115
C     1.219252   -0.755025    0.025907   -0.315584   -0.180345    0.019754
N    -0.150453   -1.081710    0.084661   -0.005506   -0.753061    0.054236
C    -1.433756   -0.474319    0.072474    0.373955   -0.290865    0.010908
N    -1.111431    0.791645   -0.032075    0.153154   -0.032765    0.000179
C     0.244825    1.234511   -0.100086   -0.169852    0.551304   -0.034845
O    -2.501846   -1.109989    0.147480    0.222020    0.161816   -0.018093
O     0.146794    2.435211   -0.186132    0.268228    0.607873   -0.053263
H     1.879029   -1.655654    0.077268    0.124961    0.316022   -0.027743
H    -0.273524   -2.084834    0.153654   -0.028317   -0.758769    0.093490
H    -1.761191    1.628549   -0.076096   -0.350482   -0.720070    0.056741
H     2.499893    1.080338   -0.143710   -0.499369   -0.412642    0.040270
12
* Frequency(10)  528.6500
C     1.542228    0.537737   -0.080280   -0.650517   -0.056709    0.022115
C     1.216250   -0.756741    0.026095   -0.315584   -0.180345    0.019754
N    -0.150505   -1.088875    0.085177   -0.005506   -0.753061    0.054236
C    -1.430198   -0.477087    0.072577    0.373955   -0.290865    0.010908
N    -1.109974    0.791333   -0.032073    0.153154   -0.032765    0.000179
C     0.243209    1.239756   -0.100417   -0.169852    0.551304   -0.034845
O    -2.499734   -1.108449    0.147308    0.222020    0.161816   -0.018093
O     0.149346    2.440995   -0.186639    0.268228    0.607873   -0.053263
H     1.880218   -1.652647    0.077004    0.124961    0.316022   -0.027743
H    -0.273794   -2.092054    0.154543   -0.028317   -0.758769    0.093490
H    -1.764526    1.621698   -0.075556   -0.350482   -0.720070    0.056741
H     2.495142    1.076412   -0.143326   -0.499369   -0.412642    0.040270
12
* Frequency(10)  528.6500
C     1.512121    0.535113   -0.079256   -0.650517   -0.056709    0.022115
C     1.201644   -0.765087    0.027009   -0.315584   -0.180345    0.019754
N    -0.150760   -1.123728    0.087687   -0.005506   -0.753061    0.054236
C    -1.412891   -0.490548    0.073082    0.373955   -0.290865    0.010908
N    -1.102886    0.789817   -0.032065    0.153154   -0.032765    0.000179
C     0.235348    1.265272   -0.102030   -0.169852    0.551304   -0.034845
O    -2.489458   -1.100960    0.146470    0.222020    0.161816   -0.018093
O     0.161760    2.469128   -0.189104    0.268228    0.607873   -0.053263
H     1.886002   -1.638021    0.075720    0.124961    0.316022   -0.027743
H    -0.275104   -2.127171    0.158870   -0.028317   -0.758769    0.093490
H    -1.780747    1.588372   -0.072930   -0.350482   -0.720070    0.056741
H     2.472030    1.057314   -0.141463   -0.499369   -0.412642    0.040270
12
* Frequency(10)  528.6500
C     1.461358    0.530687   -0.077531   -0.650517   -0.056709    0.022115
C     1.177018   -0.779160    0.028550   -0.315584   -0.180345    0.019754
N    -0.151190   -1.182492    0.091919   -0.005506   -0.753061    0.054236
C    -1.383710   -0.513246    0.073933    0.373955   -0.290865    0.010908
N    -1.090934    0.787260   -0.032051    0.153154   -0.032765    0.000179
C     0.222094    1.308292   -0.104749   -0.169852    0.551304   -0.034845
O    -2.472133   -1.088333    0.145058    0.222020    0.161816   -0.018093
O     0.182691    2.516563   -0.193260    0.268228    0.607873   -0.053263
H     1.895753   -1.613361    0.073555    0.124961    0.316022   -0.027743
H    -0.277314   -2.186381    0.166165   -0.028317   -0.758769    0.093490
H    -1.808096    1.532182   -0.068502   -0.350482   -0.720070    0.056741
H     2.433062    1.025114   -0.138320   -0.499369   -0.412642    0.040270
12
* Frequency(10)  528.6500
C     1.395442    0.524941   -0.075290   -0.650517   -0.056709    0.022115
C     1.145040   -0.797435    0.030552   -0.315584   -0.180345    0.019754
N    -0.151748   -1.258800    0.097415   -0.005506   -0.753061    0.054236
C    -1.345817   -0.542719    0.075039    0.373955   -0.290865    0.010908
N    -1.075415    0.783940   -0.032033    0.153154   -0.032765    0.000179
C     0.204883    1.364156   -0.108280   -0.169852    0.551304   -0.034845
O    -2.449636   -1.071936    0.143225    0.222020    0.161816   -0.018093
O     0.209871    2.578158   -0.198657    0.268228    0.607873   -0.053263
H     1.908415   -1.581338    0.070744    0.124961    0.316022   -0.027743
H    -0.280183   -2.263266    0.175639   -0.028317   -0.758769    0.093490
H    -1.843610    1.459217   -0.062753   -0.350482   -0.720070    0.056741
H     2.382462    0.983301   -0.134240   -0.499369   -0.412642    0.040270
12
* Frequency(10)  528.6500
C     1.321514    0.518496   -0.072777   -0.650517   -0.056709    0.022115
C     1.109175   -0.817930    0.032797   -0.315584   -0.180345    0.019754
N    -0.152373   -1.344381    0.103578   -0.005506   -0.753061    0.054236
C    -1.303319   -0.575774    0.076278    0.373955   -0.290865    0.010908
N    -1.058010    0.780216   -0.032013    0.153154   -0.032765    0.000179
C     0.185580    1.426809   -0.112240   -0.169852    0.551304   -0.034845
O    -2.424404   -1.053547    0.141169    0.222020    0.161816   -0.018093
O     0.240353    2.647240   -0.204710    0.268228    0.607873   -0.053263
H     1.922616   -1.545424    0.067591    0.124961    0.316022   -0.027743
H    -0.283402   -2.349496    0.186263   -0.028317   -0.758769    0.093490
H    -1.883441    1.377385   -0.056304   -0.350482   -0.720070    0.056741
H     2.325711    0.936406   -0.129663   -0.499369   -0.412642    0.040270
