12
* (null), Energy   -1000.0000000
C     1.321514    0.518496   -0.072777   -0.057874   -0.773138    0.059362
C     1.109175   -0.817930    0.032797    0.323615    0.901463   -0.076107
N    -0.152373   -1.344381    0.103578   -0.007840   -0.233873    0.018061
C    -1.303319   -0.575774    0.076278   -0.066565    0.240719   -0.016296
N    -1.058010    0.780216   -0.032013   -0.030814   -0.122781    0.010001
C     0.185580    1.426809   -0.112240    0.042367   -0.103377    0.006730
O    -2.424404   -1.053547    0.141169    0.008961   -0.028044    0.001865
O     0.240353    2.647240   -0.204710   -0.015616    0.174564   -0.012662
H     1.922616   -1.545424    0.067591   -1.112134   -0.536262    0.070415
H    -0.283402   -2.349496    0.186263   -0.593559   -0.178573    0.025128
H    -1.883441    1.377385   -0.056304    0.053054   -0.013485   -0.000294
H     2.325711    0.936406   -0.129663   -0.582742    0.193155   -0.000308
12
* Frequency(29) 1671.3852
C     1.314937    0.430633   -0.066031   -0.057874   -0.773138    0.059362
C     1.145952   -0.715484    0.024148    0.323615    0.901463   -0.076107
N    -0.153264   -1.370960    0.105631   -0.007840   -0.233873    0.018061
C    -1.310884   -0.548418    0.074426   -0.066565    0.240719   -0.016296
N    -1.061512    0.766263   -0.030876   -0.030814   -0.122781    0.010001
C     0.190395    1.415060   -0.111475    0.042367   -0.103377    0.006730
O    -2.423386   -1.056734    0.141381    0.008961   -0.028044    0.001865
O     0.238579    2.667078   -0.206149   -0.015616    0.174564   -0.012662
H     1.796228   -1.606367    0.075593   -1.112134   -0.536262    0.070415
H    -0.350856   -2.369790    0.189119   -0.593559   -0.178573    0.025128
H    -1.877411    1.375853   -0.056338    0.053054   -0.013485   -0.000294
H     2.259485    0.958357   -0.129698   -0.582742    0.193155   -0.000308
12
* Frequency(29) 1671.3852
C     1.309072    0.352291   -0.060015   -0.057874   -0.773138    0.059362
C     1.178744   -0.624139    0.016436    0.323615    0.901463   -0.076107
N    -0.154059   -1.394658    0.107461   -0.007840   -0.233873    0.018061
C    -1.317629   -0.524026    0.072775   -0.066565    0.240719   -0.016296
N    -1.064634    0.753822   -0.029863   -0.030814   -0.122781    0.010001
C     0.194688    1.404585   -0.110793    0.042367   -0.103377    0.006730
O    -2.422478   -1.059575    0.141570    0.008961   -0.028044    0.001865
O     0.236996    2.684767   -0.207432   -0.015616    0.174564   -0.012662
H     1.683536   -1.660707    0.082728   -1.112134   -0.536262    0.070415
H    -0.411002   -2.387885    0.191665   -0.593559   -0.178573    0.025128
H    -1.872036    1.374486   -0.056368    0.053054   -0.013485   -0.000294
H     2.200436    0.977930   -0.129729   -0.582742    0.193155   -0.000308
12
* Frequency(29) 1671.3852
C     1.304556    0.291960   -0.055383   -0.057874   -0.773138    0.059362
C     1.203997   -0.553794    0.010497    0.323615    0.901463   -0.076107
N    -0.154671   -1.412908    0.108870   -0.007840   -0.233873    0.018061
C    -1.322823   -0.505241    0.071503   -0.066565    0.240719   -0.016296
N    -1.067039    0.744240   -0.029082   -0.030814   -0.122781    0.010001
C     0.197994    1.396518   -0.110268    0.042367   -0.103377    0.006730
O    -2.421779   -1.061764    0.141715    0.008961   -0.028044    0.001865
O     0.235778    2.698389   -0.208420   -0.015616    0.174564   -0.012662
H     1.596752   -1.702553    0.088223   -1.112134   -0.536262    0.070415
H    -0.457319   -2.401820    0.193626   -0.593559   -0.178573    0.025128
H    -1.867896    1.373434   -0.056391    0.053054   -0.013485   -0.000294
H     2.154962    0.993002   -0.129753   -0.582742    0.193155   -0.000308
12
* Frequency(29) 1671.3852
C     1.301878    0.256178   -0.052636   -0.057874   -0.773138    0.059362
C     1.218975   -0.512073    0.006975    0.323615    0.901463   -0.076107
N    -0.155034   -1.423732    0.109706   -0.007840   -0.233873    0.018061
C    -1.325904   -0.494100    0.070749   -0.066565    0.240719   -0.016296
N    -1.068465    0.738558   -0.028619   -0.030814   -0.122781    0.010001
C     0.199955    1.391734   -0.109956    0.042367   -0.103377    0.006730
O    -2.421364   -1.063062    0.141802    0.008961   -0.028044    0.001865
O     0.235055    2.706468   -0.209006   -0.015616    0.174564   -0.012662
H     1.545280   -1.727372    0.091482   -1.112134   -0.536262    0.070415
H    -0.484790   -2.410085    0.194789   -0.593559   -0.178573    0.025128
H    -1.865440    1.372810   -0.056404    0.053054   -0.013485   -0.000294
H     2.127992    1.001942   -0.129768   -0.582742    0.193155   -0.000308
12
* Frequency(29) 1671.3852
C     1.301327    0.248822   -0.052071   -0.057874   -0.773138    0.059362
C     1.222054   -0.503496    0.006251    0.323615    0.901463   -0.076107
N    -0.155108   -1.425957    0.109878   -0.007840   -0.233873    0.018061
C    -1.326537   -0.491810    0.070594   -0.066565    0.240719   -0.016296
N    -1.068758    0.737390   -0.028524   -0.030814   -0.122781    0.010001
C     0.200358    1.390750   -0.109892    0.042367   -0.103377    0.006730
O    -2.421279   -1.063328    0.141819    0.008961   -0.028044    0.001865
O     0.234906    2.708129   -0.209127   -0.015616    0.174564   -0.012662
H     1.534699   -1.732475    0.092152   -1.112134   -0.536262    0.070415
H    -0.490438   -2.411784    0.195028   -0.593559   -0.178573    0.025128
H    -1.864935    1.372681   -0.056407    0.053054   -0.013485   -0.000294
H     2.122448    1.003780   -0.129771   -0.582742    0.193155   -0.000308
12
* Frequency(29) 1671.3852
C     1.302964    0.270689   -0.053750   -0.057874   -0.773138    0.059362
C     1.212901   -0.528993    0.008403    0.323615    0.901463   -0.076107
N    -0.154886   -1.419342    0.109367   -0.007840   -0.233873    0.018061
C    -1.324655   -0.498619    0.071055   -0.066565    0.240719   -0.016296
N    -1.067887    0.740862   -0.028807   -0.030814   -0.122781    0.010001
C     0.199159    1.393674   -0.110082    0.042367   -0.103377    0.006730
O    -2.421532   -1.062535    0.141767    0.008961   -0.028044    0.001865
O     0.235348    2.703191   -0.208769   -0.015616    0.174564   -0.012662
H     1.566154   -1.717307    0.090160   -1.112134   -0.536262    0.070415
H    -0.473650   -2.406733    0.194317   -0.593559   -0.178573    0.025128
H    -1.866436    1.373063   -0.056399    0.053054   -0.013485   -0.000294
H     2.138930    0.998316   -0.129762   -0.582742    0.193155   -0.000308
12
* Frequency(29) 1671.3852
C     1.306611    0.319411   -0.057491   -0.057874   -0.773138    0.059362
C     1.192507   -0.585800    0.013199    0.323615    0.901463   -0.076107
N    -0.154392   -1.404604    0.108229   -0.007840   -0.233873    0.018061
C    -1.320460   -0.513788    0.072082   -0.066565    0.240719   -0.016296
N    -1.065945    0.748600   -0.029437   -0.030814   -0.122781    0.010001
C     0.196490    1.400189   -0.110507    0.042367   -0.103377    0.006730
O    -2.422097   -1.060768    0.141649    0.008961   -0.028044    0.001865
O     0.236332    2.692191   -0.207971   -0.015616    0.174564   -0.012662
H     1.636238   -1.683513    0.085723   -1.112134   -0.536262    0.070415
H    -0.436245   -2.395480    0.192734   -0.593559   -0.178573    0.025128
H    -1.869779    1.373913   -0.056380    0.053054   -0.013485   -0.000294
H     2.175653    0.986144   -0.129742   -0.582742    0.193155   -0.000308
12
* Frequency(29) 1671.3852
C     1.311873    0.389706   -0.062888   -0.057874   -0.773138    0.059362
C     1.163084   -0.667763    0.020119    0.323615    0.901463   -0.076107
N    -0.153679   -1.383340    0.106587   -0.007840   -0.233873    0.018061
C    -1.314408   -0.535675    0.073564   -0.066565    0.240719   -0.016296
N    -1.063143    0.759763   -0.030347   -0.030814   -0.122781    0.010001
C     0.192637    1.409588   -0.111118    0.042367   -0.103377    0.006730
O    -2.422912   -1.058218    0.141479    0.008961   -0.028044    0.001865
O     0.237752    2.676319   -0.206820   -0.015616    0.174564   -0.012662
H     1.737355   -1.634755    0.079321   -1.112134   -0.536262    0.070415
H    -0.382278   -2.379243    0.190449   -0.593559   -0.178573    0.025128
H    -1.874603    1.375139   -0.056353    0.053054   -0.013485   -0.000294
H     2.228637    0.968582   -0.129715   -0.582742    0.193155   -0.000308
12
* Frequency(29) 1671.3852
C     1.318180    0.473957   -0.069357   -0.057874   -0.773138    0.059362
C     1.127818   -0.765999    0.028413    0.323615    0.901463   -0.076107
N    -0.152825   -1.357854    0.104619   -0.007840   -0.233873    0.018061
C    -1.307154   -0.561907    0.075340   -0.066565    0.240719   -0.016296
N    -1.059785    0.773143   -0.031436   -0.030814   -0.122781    0.010001
C     0.188021    1.420853   -0.111852    0.042367   -0.103377    0.006730
O    -2.423888   -1.055162    0.141276    0.008961   -0.028044    0.001865
O     0.239454    2.657296   -0.205440   -0.015616    0.174564   -0.012662
H     1.858548   -1.576317    0.071647   -1.112134   -0.536262    0.070415
H    -0.317595   -2.359784    0.187711   -0.593559   -0.178573    0.025128
H    -1.880384    1.376608   -0.056321    0.053054   -0.013485   -0.000294
H     2.292140    0.947533   -0.129681   -0.582742    0.193155   -0.000308
12
* Frequency(29) 1671.3852
C     1.324848    0.563035   -0.076196   -0.057874   -0.773138    0.059362
C     1.090532   -0.869862    0.037182    0.323615    0.901463   -0.076107
N    -0.151922   -1.330908    0.102538   -0.007840   -0.233873    0.018061
C    -1.299484   -0.589641    0.077217   -0.066565    0.240719   -0.016296
N    -1.056235    0.787290   -0.032589   -0.030814   -0.122781    0.010001
C     0.183139    1.432764   -0.112627    0.042367   -0.103377    0.006730
O    -2.424921   -1.051931    0.141061    0.008961   -0.028044    0.001865
O     0.241253    2.637184   -0.203981   -0.015616    0.174564   -0.012662
H     1.986684   -1.514531    0.063534   -1.112134   -0.536262    0.070415
H    -0.249208   -2.339209    0.184816   -0.593559   -0.178573    0.025128
H    -1.886497    1.378162   -0.056287    0.053054   -0.013485   -0.000294
H     2.359281    0.925279   -0.129645   -0.582742    0.193155   -0.000308
12
* Frequency(29) 1671.3852
C     1.331154    0.647287   -0.082665   -0.057874   -0.773138    0.059362
C     1.055267   -0.968097    0.045475    0.323615    0.901463   -0.076107
N    -0.151067   -1.305422    0.100570   -0.007840   -0.233873    0.018061
C    -1.292231   -0.615873    0.078993   -0.066565    0.240719   -0.016296
N    -1.052877    0.800669   -0.033679   -0.030814   -0.122781    0.010001
C     0.178522    1.444029   -0.113361    0.042367   -0.103377    0.006730
O    -2.425897   -1.048875    0.140858    0.008961   -0.028044    0.001865
O     0.242955    2.618161   -0.202601   -0.015616    0.174564   -0.012662
H     2.107877   -1.456093    0.055861   -1.112134   -0.536262    0.070415
H    -0.184525   -2.319749    0.182077   -0.593559   -0.178573    0.025128
H    -1.892278    1.379632   -0.056255    0.053054   -0.013485   -0.000294
H     2.422785    0.904230   -0.129612   -0.582742    0.193155   -0.000308
12
* Frequency(29) 1671.3852
C     1.336416    0.717582   -0.088063   -0.057874   -0.773138    0.059362
C     1.025843   -1.050060    0.052395    0.323615    0.901463   -0.076107
N    -0.150355   -1.284158    0.098928   -0.007840   -0.233873    0.018061
C    -1.286178   -0.637760    0.080474   -0.066565    0.240719   -0.016296
N    -1.050075    0.811833   -0.034588   -0.030814   -0.122781    0.010001
C     0.174670    1.453428   -0.113973    0.042367   -0.103377    0.006730
O    -2.426712   -1.046325    0.140688    0.008961   -0.028044    0.001865
O     0.244375    2.602289   -0.201450   -0.015616    0.174564   -0.012662
H     2.208994   -1.407335    0.049459   -1.112134   -0.536262    0.070415
H    -0.130558   -2.303513    0.179793   -0.593559   -0.178573    0.025128
H    -1.897102    1.380858   -0.056229    0.053054   -0.013485   -0.000294
H     2.475769    0.886668   -0.129584   -0.582742    0.193155   -0.000308
12
* Frequency(29) 1671.3852
C     1.340064    0.766303   -0.091803   -0.057874   -0.773138    0.059362
C     1.005450   -1.106867    0.057191    0.323615    0.901463   -0.076107
N    -0.149860   -1.269420    0.097789   -0.007840   -0.233873    0.018061
C    -1.281984   -0.652929    0.081501   -0.066565    0.240719   -0.016296
N    -1.048134    0.819570   -0.035218   -0.030814   -0.122781    0.010001
C     0.172000    1.459943   -0.114397    0.042367   -0.103377    0.006730
O    -2.427277   -1.044558    0.140571    0.008961   -0.028044    0.001865
O     0.245359    2.591288   -0.200652   -0.015616    0.174564   -0.012662
H     2.279078   -1.373541    0.045021   -1.112134   -0.536262    0.070415
H    -0.093154   -2.292260    0.178209   -0.593559   -0.178573    0.025128
H    -1.900446    1.381707   -0.056210    0.053054   -0.013485   -0.000294
H     2.512492    0.874496   -0.129565   -0.582742    0.193155   -0.000308
12
* Frequency(29) 1671.3852
C     1.341700    0.788170   -0.093482   -0.057874   -0.773138    0.059362
C     0.996297   -1.132364    0.059344    0.323615    0.901463   -0.076107
N    -0.149639   -1.262805    0.097279   -0.007840   -0.233873    0.018061
C    -1.280101   -0.659738    0.081962   -0.066565    0.240719   -0.016296
N    -1.047262    0.823043   -0.035501   -0.030814   -0.122781    0.010001
C     0.170802    1.462867   -0.114587    0.042367   -0.103377    0.006730
O    -2.427530   -1.043765    0.140518    0.008961   -0.028044    0.001865
O     0.245801    2.586351   -0.200293   -0.015616    0.174564   -0.012662
H     2.310534   -1.358373    0.043030   -1.112134   -0.536262    0.070415
H    -0.076365   -2.287209    0.177498   -0.593559   -0.178573    0.025128
H    -1.901946    1.382089   -0.056202    0.053054   -0.013485   -0.000294
H     2.528974    0.869033   -0.129556   -0.582742    0.193155   -0.000308
12
* Frequency(29) 1671.3852
C     1.341150    0.780814   -0.092918   -0.057874   -0.773138    0.059362
C     0.999376   -1.123787    0.058620    0.323615    0.901463   -0.076107
N    -0.149713   -1.265030    0.097450   -0.007840   -0.233873    0.018061
C    -1.280734   -0.657448    0.081807   -0.066565    0.240719   -0.016296
N    -1.047555    0.821875   -0.035406   -0.030814   -0.122781    0.010001
C     0.171205    1.461883   -0.114523    0.042367   -0.103377    0.006730
O    -2.427445   -1.044032    0.140536    0.008961   -0.028044    0.001865
O     0.245652    2.588012   -0.200414   -0.015616    0.174564   -0.012662
H     2.299952   -1.363475    0.043700   -1.112134   -0.536262    0.070415
H    -0.082013   -2.288908    0.177738   -0.593559   -0.178573    0.025128
H    -1.901441    1.381961   -0.056205    0.053054   -0.013485   -0.000294
H     2.523429    0.870871   -0.129559   -0.582742    0.193155   -0.000308
12
* Frequency(29) 1671.3852
C     1.338471    0.745032   -0.090170   -0.057874   -0.773138    0.059362
C     1.014353   -1.082066    0.055097    0.323615    0.901463   -0.076107
N    -0.150076   -1.275854    0.098286   -0.007840   -0.233873    0.018061
C    -1.283815   -0.646307    0.081053   -0.066565    0.240719   -0.016296
N    -1.048981    0.816192   -0.034943   -0.030814   -0.122781    0.010001
C     0.173166    1.457099   -0.114212    0.042367   -0.103377    0.006730
O    -2.427030   -1.045330    0.140622    0.008961   -0.028044    0.001865
O     0.244929    2.596091   -0.201000   -0.015616    0.174564   -0.012662
H     2.248481   -1.388295    0.046959   -1.112134   -0.536262    0.070415
H    -0.109484   -2.297173    0.178901   -0.593559   -0.178573    0.025128
H    -1.898986    1.381336   -0.056218    0.053054   -0.013485   -0.000294
H     2.496459    0.879810   -0.129573   -0.582742    0.193155   -0.000308
12
* Frequency(29) 1671.3852
C     1.333955    0.684701   -0.085538   -0.057874   -0.773138    0.059362
C     1.039606   -1.011722    0.049158    0.323615    0.901463   -0.076107
N    -0.150688   -1.294104    0.099696   -0.007840   -0.233873    0.018061
C    -1.289009   -0.627522    0.079781   -0.066565    0.240719   -0.016296
N    -1.051386    0.806611   -0.034163   -0.030814   -0.122781    0.010001
C     0.176472    1.449032   -0.113686    0.042367   -0.103377    0.006730
O    -2.426331   -1.047518    0.140768    0.008961   -0.028044    0.001865
O     0.243711    2.609713   -0.201988   -0.015616    0.174564   -0.012662
H     2.161697   -1.430141    0.052453   -1.112134   -0.536262    0.070415
H    -0.155801   -2.311108    0.180861   -0.593559   -0.178573    0.025128
H    -1.894846    1.380284   -0.056241    0.053054   -0.013485   -0.000294
H     2.450986    0.894883   -0.129597   -0.582742    0.193155   -0.000308
12
* Frequency(29) 1671.3852
C     1.328091    0.606359   -0.079523   -0.057874   -0.773138    0.059362
C     1.072398   -0.920377    0.041446    0.323615    0.901463   -0.076107
N    -0.151482   -1.317803    0.101526   -0.007840   -0.233873    0.018061
C    -1.295754   -0.603130    0.078130   -0.066565    0.240719   -0.016296
N    -1.054508    0.794170   -0.033149   -0.030814   -0.122781    0.010001
C     0.180765    1.438557   -0.113004    0.042367   -0.103377    0.006730
O    -2.425423   -1.050360    0.140957    0.008961   -0.028044    0.001865
O     0.242128    2.627402   -0.203271   -0.015616    0.174564   -0.012662
H     2.049004   -1.484481    0.059589   -1.112134   -0.536262    0.070415
H    -0.215947   -2.329203    0.183408   -0.593559   -0.178573    0.025128
H    -1.889470    1.378918   -0.056271    0.053054   -0.013485   -0.000294
H     2.391936    0.914455   -0.129628   -0.582742    0.193155   -0.000308
12
* Frequency(29) 1671.3852
C     1.321514    0.518496   -0.072777   -0.057874   -0.773138    0.059362
C     1.109175   -0.817930    0.032797    0.323615    0.901463   -0.076107
N    -0.152373   -1.344381    0.103578   -0.007840   -0.233873    0.018061
C    -1.303319   -0.575774    0.076278   -0.066565    0.240719   -0.016296
N    -1.058010    0.780216   -0.032013   -0.030814   -0.122781    0.010001
C     0.185580    1.426809   -0.112240    0.042367   -0.103377    0.006730
O    -2.424404   -1.053547    0.141169    0.008961   -0.028044    0.001865
O     0.240353    2.647240   -0.204710   -0.015616    0.174564   -0.012662
H     1.922616   -1.545424    0.067591   -1.112134   -0.536262    0.070415
H    -0.283402   -2.349496    0.186263   -0.593559   -0.178573    0.025128
H    -1.883441    1.377385   -0.056304    0.053054   -0.013485   -0.000294
H     2.325711    0.936406   -0.129663   -0.582742    0.193155   -0.000308
