12
* (null), Energy   -1000.0000000
C     1.321514    0.518496   -0.072777   -0.068302   -0.448171    0.039462
C     1.109175   -0.817930    0.032797   -0.077025   -0.512270    0.033973
N    -0.152373   -1.344381    0.103578   -0.144267    0.120043   -0.009213
C    -1.303319   -0.575774    0.076278    0.239336    0.494567   -0.047850
N    -1.058010    0.780216   -0.032013   -0.045501    0.424609   -0.027434
C     0.185580    1.426809   -0.112240    0.031042    0.033526    0.004606
O    -2.424404   -1.053547    0.141169    0.595277   -0.182780   -0.002755
O     0.240353    2.647240   -0.204710   -0.452311    0.068512    0.003536
H     1.922616   -1.545424    0.067591   -0.248560   -0.710888    0.043720
H    -0.283402   -2.349496    0.186263   -0.967183    0.242490    0.115970
H    -1.883441    1.377385   -0.056304    0.055848    0.567657   -0.059746
H     2.325711    0.936406   -0.129663    0.037649   -0.702267    0.037165
12
* Frequency(12)  571.3383
C     1.313752    0.467564   -0.068292   -0.068302   -0.448171    0.039462
C     1.100422   -0.876147    0.036658   -0.077025   -0.512270    0.033973
N    -0.168769   -1.330739    0.102531   -0.144267    0.120043   -0.009213
C    -1.276120   -0.519569    0.070840    0.239336    0.494567   -0.047850
N    -1.063181    0.828471   -0.035130   -0.045501    0.424609   -0.027434
C     0.189108    1.430619   -0.111716    0.031042    0.033526    0.004606
O    -2.356754   -1.074319    0.140856    0.595277   -0.182780   -0.002755
O     0.188951    2.655026   -0.204308   -0.452311    0.068512    0.003536
H     1.894369   -1.626213    0.072560   -0.248560   -0.710888    0.043720
H    -0.393317   -2.321939    0.199443   -0.967183    0.242490    0.115970
H    -1.877094    1.441896   -0.063094    0.055848    0.567657   -0.059746
H     2.329989    0.856597   -0.125440    0.037649   -0.702267    0.037165
12
* Frequency(12)  571.3383
C     1.306831    0.422151   -0.064293   -0.068302   -0.448171    0.039462
C     1.092617   -0.928055    0.040100   -0.077025   -0.512270    0.033973
N    -0.183387   -1.318575    0.101598   -0.144267    0.120043   -0.009213
C    -1.251868   -0.469455    0.065992    0.239336    0.494567   -0.047850
N    -1.067792    0.871496   -0.037910   -0.045501    0.424609   -0.027434
C     0.192253    1.434016   -0.111249    0.031042    0.033526    0.004606
O    -2.296435   -1.092840    0.140576    0.595277   -0.182780   -0.002755
O     0.143118    2.661968   -0.203950   -0.452311    0.068512    0.003536
H     1.869182   -1.698247    0.076990   -0.248560   -0.710888    0.043720
H    -0.491321   -2.297367    0.211194   -0.967183    0.242490    0.115970
H    -1.871435    1.499417   -0.069148    0.055848    0.567657   -0.059746
H     2.333804    0.785437   -0.121674    0.037649   -0.702267    0.037165
12
* Frequency(12)  571.3383
C     1.301501    0.387178   -0.061214   -0.068302   -0.448171    0.039462
C     1.086606   -0.968029    0.042751   -0.077025   -0.512270    0.033973
N    -0.194645   -1.309208    0.100879   -0.144267    0.120043   -0.009213
C    -1.233192   -0.430862    0.062258    0.239336    0.494567   -0.047850
N    -1.071342    0.904630   -0.040051   -0.045501    0.424609   -0.027434
C     0.194675    1.436632   -0.110890    0.031042    0.033526    0.004606
O    -2.249983   -1.107103    0.140361    0.595277   -0.182780   -0.002755
O     0.107823    2.667315   -0.203674   -0.452311    0.068512    0.003536
H     1.849786   -1.753720    0.080401   -0.248560   -0.710888    0.043720
H    -0.566794   -2.278445    0.220243   -0.967183    0.242490    0.115970
H    -1.867077    1.543713   -0.073810    0.055848    0.567657   -0.059746
H     2.336742    0.730636   -0.118773    0.037649   -0.702267    0.037165
12
* Frequency(12)  571.3383
C     1.298340    0.366436   -0.059388   -0.068302   -0.448171    0.039462
C     1.083042   -0.991738    0.044324   -0.077025   -0.512270    0.033973
N    -0.201322   -1.303652    0.100452   -0.144267    0.120043   -0.009213
C    -1.222115   -0.407972    0.060043    0.239336    0.494567   -0.047850
N    -1.073448    0.924282   -0.041321   -0.045501    0.424609   -0.027434
C     0.196112    1.438183   -0.110677    0.031042    0.033526    0.004606
O    -2.222433   -1.115562    0.140234    0.595277   -0.182780   -0.002755
O     0.086889    2.670486   -0.203511   -0.452311    0.068512    0.003536
H     1.838282   -1.786621    0.082425   -0.248560   -0.710888    0.043720
H    -0.611557   -2.267222    0.225611   -0.967183    0.242490    0.115970
H    -1.864492    1.569986   -0.076576    0.055848    0.567657   -0.059746
H     2.338485    0.698134   -0.117053    0.037649   -0.702267    0.037165
12
* Frequency(12)  571.3383
C     1.297690    0.362172   -0.059012   -0.068302   -0.448171    0.039462
C     1.082309   -0.996612    0.044647   -0.077025   -0.512270    0.033973
N    -0.202695   -1.302510    0.100365   -0.144267    0.120043   -0.009213
C    -1.219838   -0.403267    0.059588    0.239336    0.494567   -0.047850
N    -1.073881    0.928322   -0.041582   -0.045501    0.424609   -0.027434
C     0.196407    1.438502   -0.110633    0.031042    0.033526    0.004606
O    -2.216769   -1.117301    0.140208    0.595277   -0.182780   -0.002755
O     0.082585    2.671137   -0.203477   -0.452311    0.068512    0.003536
H     1.835917   -1.793385    0.082841   -0.248560   -0.710888    0.043720
H    -0.620759   -2.264915    0.226714   -0.967183    0.242490    0.115970
H    -1.863961    1.575386   -0.077144    0.055848    0.567657   -0.059746
H     2.338843    0.691452   -0.116700    0.037649   -0.702267    0.037165
12
* Frequency(12)  571.3383
C     1.299622    0.374848   -0.060128   -0.068302   -0.448171    0.039462
C     1.084487   -0.982123    0.043686   -0.077025   -0.512270    0.033973
N    -0.198614   -1.305905    0.100625   -0.144267    0.120043   -0.009213
C    -1.226607   -0.417255    0.060941    0.239336    0.494567   -0.047850
N    -1.072594    0.916312   -0.040806   -0.045501    0.424609   -0.027434
C     0.195529    1.437554   -0.110763    0.031042    0.033526    0.004606
O    -2.233606   -1.112132    0.140286    0.595277   -0.182780   -0.002755
O     0.095378    2.669200   -0.203577   -0.452311    0.068512    0.003536
H     1.842948   -1.773278    0.081604   -0.248560   -0.710888    0.043720
H    -0.593404   -2.271773    0.223434   -0.967183    0.242490    0.115970
H    -1.865540    1.559331   -0.075454    0.055848    0.567657   -0.059746
H     2.337778    0.711315   -0.117751    0.037649   -0.702267    0.037165
12
* Frequency(12)  571.3383
C     1.303926    0.403091   -0.062615   -0.068302   -0.448171    0.039462
C     1.089341   -0.949841    0.041545   -0.077025   -0.512270    0.033973
N    -0.189523   -1.313470    0.101206   -0.144267    0.120043   -0.009213
C    -1.241689   -0.448421    0.063957    0.239336    0.494567   -0.047850
N    -1.069727    0.889555   -0.039077   -0.045501    0.424609   -0.027434
C     0.193573    1.435441   -0.111053    0.031042    0.033526    0.004606
O    -2.271119   -1.100613    0.140459    0.595277   -0.182780   -0.002755
O     0.123882    2.664882   -0.203800   -0.452311    0.068512    0.003536
H     1.858611   -1.728480    0.078849   -0.248560   -0.710888    0.043720
H    -0.532454   -2.287054    0.216126   -0.967183    0.242490    0.115970
H    -1.869060    1.523559   -0.071689    0.055848    0.567657   -0.059746
H     2.335405    0.755570   -0.120093    0.037649   -0.702267    0.037165
12
* Frequency(12)  571.3383
C     1.310136    0.443839   -0.066203   -0.068302   -0.448171    0.039462
C     1.096344   -0.903265    0.038456   -0.077025   -0.512270    0.033973
N    -0.176406   -1.324384    0.102044   -0.144267    0.120043   -0.009213
C    -1.263450   -0.493388    0.068307    0.239336    0.494567   -0.047850
N    -1.065590    0.850948   -0.036583   -0.045501    0.424609   -0.027434
C     0.190751    1.432393   -0.111472    0.031042    0.033526    0.004606
O    -2.325242   -1.083995    0.140710    0.595277   -0.182780   -0.002755
O     0.165007    2.658653   -0.204121   -0.452311    0.068512    0.003536
H     1.881211   -1.663845    0.074874   -0.248560   -0.710888    0.043720
H    -0.444516   -2.309102    0.205582   -0.967183    0.242490    0.115970
H    -1.874137    1.471946   -0.066257    0.055848    0.567657   -0.059746
H     2.331982    0.819421   -0.123472    0.037649   -0.702267    0.037165
12
* Frequency(12)  571.3383
C     1.317579    0.492678   -0.070503   -0.068302   -0.448171    0.039462
C     1.104738   -0.847441    0.034754   -0.077025   -0.512270    0.033973
N    -0.160684   -1.337466    0.103048   -0.144267    0.120043   -0.009213
C    -1.289531   -0.547283    0.073522    0.239336    0.494567   -0.047850
N    -1.060631    0.804677   -0.033593   -0.045501    0.424609   -0.027434
C     0.187368    1.428740   -0.111974    0.031042    0.033526    0.004606
O    -2.390112   -1.064076    0.141010    0.595277   -0.182780   -0.002755
O     0.214297    2.651187   -0.204507   -0.452311    0.068512    0.003536
H     1.908297   -1.586377    0.070110   -0.248560   -0.710888    0.043720
H    -0.339119   -2.335527    0.192944   -0.967183    0.242490    0.115970
H    -1.880223    1.410087   -0.059746    0.055848    0.567657   -0.059746
H     2.327880    0.895950   -0.127522    0.037649   -0.702267    0.037165
12
* Frequency(12)  571.3383
C     1.325449    0.544315   -0.075050   -0.068302   -0.448171    0.039462
C     1.113613   -0.788419    0.030840   -0.077025   -0.512270    0.033973
N    -0.144062   -1.351297    0.104109   -0.144267    0.120043   -0.009213
C    -1.317107   -0.604265    0.079035    0.239336    0.494567   -0.047850
N    -1.055389    0.755755   -0.030432   -0.045501    0.424609   -0.027434
C     0.183792    1.424877   -0.112505    0.031042    0.033526    0.004606
O    -2.458697   -1.043017    0.141327    0.595277   -0.182780   -0.002755
O     0.266410    2.643293   -0.204914   -0.452311    0.068512    0.003536
H     1.936935   -1.504471    0.065072   -0.248560   -0.710888    0.043720
H    -0.227684   -2.363466    0.179582   -0.967183    0.242490    0.115970
H    -1.886658    1.344683   -0.052863    0.055848    0.567657   -0.059746
H     2.323542    0.976862   -0.131804    0.037649   -0.702267    0.037165
12
* Frequency(12)  571.3383
C     1.332892    0.593153   -0.079350   -0.068302   -0.448171    0.039462
C     1.122006   -0.732595    0.027138   -0.077025   -0.512270    0.033973
N    -0.128341   -1.364378    0.105113   -0.144267    0.120043   -0.009213
C    -1.343188   -0.658160    0.084249    0.239336    0.494567   -0.047850
N    -1.050431    0.709484   -0.027443   -0.045501    0.424609   -0.027434
C     0.180409    1.421224   -0.113007    0.031042    0.033526    0.004606
O    -2.523567   -1.023099    0.141628    0.595277   -0.182780   -0.002755
O     0.315700    2.635827   -0.205299   -0.452311    0.068512    0.003536
H     1.964022   -1.427003    0.060308   -0.248560   -0.710888    0.043720
H    -0.122287   -2.389891    0.166945   -0.967183    0.242490    0.115970
H    -1.892744    1.282824   -0.046352    0.055848    0.567657   -0.059746
H     2.319439    1.053391   -0.135854    0.037649   -0.702267    0.037165
12
* Frequency(12)  571.3383
C     1.339102    0.633902   -0.082938   -0.068302   -0.448171    0.039462
C     1.129009   -0.686019    0.024049   -0.077025   -0.512270    0.033973
N    -0.115224   -1.375293    0.105951   -0.144267    0.120043   -0.009213
C    -1.364949   -0.703127    0.088600    0.239336    0.494567   -0.047850
N    -1.046294    0.670878   -0.024948   -0.045501    0.424609   -0.027434
C     0.177586    1.418176   -0.113426    0.031042    0.033526    0.004606
O    -2.577690   -1.006480    0.141878    0.595277   -0.182780   -0.002755
O     0.356825    2.629598   -0.205621   -0.452311    0.068512    0.003536
H     1.986621   -1.362368    0.056333   -0.248560   -0.710888    0.043720
H    -0.034349   -2.411938    0.156401   -0.967183    0.242490    0.115970
H    -1.897822    1.231212   -0.040920    0.055848    0.567657   -0.059746
H     2.316016    1.117242   -0.139233    0.037649   -0.702267    0.037165
12
* Frequency(12)  571.3383
C     1.343406    0.662144   -0.085425   -0.068302   -0.448171    0.039462
C     1.133863   -0.653737    0.021908   -0.077025   -0.512270    0.033973
N    -0.106133   -1.382858    0.106531   -0.144267    0.120043   -0.009213
C    -1.380031   -0.734293    0.091615    0.239336    0.494567   -0.047850
N    -1.043426    0.644121   -0.023219   -0.045501    0.424609   -0.027434
C     0.175630    1.416063   -0.113716    0.031042    0.033526    0.004606
O    -2.615203   -0.994962    0.142052    0.595277   -0.182780   -0.002755
O     0.385328    2.625280   -0.205843   -0.452311    0.068512    0.003536
H     2.002285   -1.317570    0.053578   -0.248560   -0.710888    0.043720
H     0.026601   -2.427220    0.149093   -0.967183    0.242490    0.115970
H    -1.901341    1.195439   -0.037155    0.055848    0.567657   -0.059746
H     2.313644    1.161497   -0.141575    0.037649   -0.702267    0.037165
12
* Frequency(12)  571.3383
C     1.345338    0.674820   -0.086541   -0.068302   -0.448171    0.039462
C     1.136042   -0.639248    0.020947   -0.077025   -0.512270    0.033973
N    -0.102052   -1.386253    0.106792   -0.144267    0.120043   -0.009213
C    -1.386801   -0.748281    0.092969    0.239336    0.494567   -0.047850
N    -1.042139    0.632111   -0.022444   -0.045501    0.424609   -0.027434
C     0.174752    1.415115   -0.113846    0.031042    0.033526    0.004606
O    -2.632040   -0.989792    0.142130    0.595277   -0.182780   -0.002755
O     0.398122    2.623342   -0.205943   -0.452311    0.068512    0.003536
H     2.009315   -1.297463    0.052341   -0.248560   -0.710888    0.043720
H     0.053956   -2.434078    0.145812   -0.967183    0.242490    0.115970
H    -1.902921    1.179384   -0.035465    0.055848    0.567657   -0.059746
H     2.312579    1.181360   -0.142627    0.037649   -0.702267    0.037165
12
* Frequency(12)  571.3383
C     1.344688    0.670556   -0.086166   -0.068302   -0.448171    0.039462
C     1.135309   -0.644122    0.021271   -0.077025   -0.512270    0.033973
N    -0.103425   -1.385111    0.106704   -0.144267    0.120043   -0.009213
C    -1.384523   -0.743576    0.092513    0.239336    0.494567   -0.047850
N    -1.042572    0.636151   -0.022705   -0.045501    0.424609   -0.027434
C     0.175048    1.415434   -0.113802    0.031042    0.033526    0.004606
O    -2.626376   -0.991531    0.142104    0.595277   -0.182780   -0.002755
O     0.393818    2.623994   -0.205910   -0.452311    0.068512    0.003536
H     2.006950   -1.304227    0.052757   -0.248560   -0.710888    0.043720
H     0.044754   -2.431771    0.146916   -0.967183    0.242490    0.115970
H    -1.902390    1.184785   -0.036033    0.055848    0.567657   -0.059746
H     2.312937    1.174678   -0.142273    0.037649   -0.702267    0.037165
12
* Frequency(12)  571.3383
C     1.341527    0.649814   -0.084339   -0.068302   -0.448171    0.039462
C     1.131744   -0.667831    0.022843   -0.077025   -0.512270    0.033973
N    -0.110102   -1.379555    0.106278   -0.144267    0.120043   -0.009213
C    -1.373447   -0.720686    0.090299    0.239336    0.494567   -0.047850
N    -1.044678    0.655803   -0.023974   -0.045501    0.424609   -0.027434
C     0.176484    1.416985   -0.113589    0.031042    0.033526    0.004606
O    -2.598825   -0.999990    0.141976    0.595277   -0.182780   -0.002755
O     0.372884    2.627165   -0.205746   -0.452311    0.068512    0.003536
H     1.995446   -1.337128    0.054781   -0.248560   -0.710888    0.043720
H    -0.000009   -2.420548    0.152283   -0.967183    0.242490    0.115970
H    -1.899805    1.211057   -0.038798    0.055848    0.567657   -0.059746
H     2.314679    1.142176   -0.140553    0.037649   -0.702267    0.037165
12
* Frequency(12)  571.3383
C     1.336197    0.614842   -0.081260   -0.068302   -0.448171    0.039462
C     1.125734   -0.707805    0.025494   -0.077025   -0.512270    0.033973
N    -0.121360   -1.370187    0.105559   -0.144267    0.120043   -0.009213
C    -1.354770   -0.682093    0.086565    0.239336    0.494567   -0.047850
N    -1.048229    0.688936   -0.026115   -0.045501    0.424609   -0.027434
C     0.178907    1.419601   -0.113230    0.031042    0.033526    0.004606
O    -2.552374   -1.014254    0.141761    0.595277   -0.182780   -0.002755
O     0.337589    2.632511   -0.205470   -0.452311    0.068512    0.003536
H     1.976050   -1.392601    0.058192   -0.248560   -0.710888    0.043720
H    -0.075482   -2.401626    0.161333   -0.967183    0.242490    0.115970
H    -1.895447    1.255353   -0.043461    0.055848    0.567657   -0.059746
H     2.317617    1.087376   -0.137653    0.037649   -0.702267    0.037165
12
* Frequency(12)  571.3383
C     1.329276    0.569429   -0.077261   -0.068302   -0.448171    0.039462
C     1.117929   -0.759713    0.028936   -0.077025   -0.512270    0.033973
N    -0.135978   -1.358024    0.104625   -0.144267    0.120043   -0.009213
C    -1.330518   -0.631979    0.081716    0.239336    0.494567   -0.047850
N    -1.052839    0.731962   -0.028895   -0.045501    0.424609   -0.027434
C     0.182052    1.422999   -0.112763    0.031042    0.033526    0.004606
O    -2.492055   -1.032775    0.141482    0.595277   -0.182780   -0.002755
O     0.291756    2.639454   -0.205112   -0.452311    0.068512    0.003536
H     1.950864   -1.464635    0.062622   -0.248560   -0.710888    0.043720
H    -0.173486   -2.377054    0.173084   -0.967183    0.242490    0.115970
H    -1.889788    1.312874   -0.049515    0.055848    0.567657   -0.059746
H     2.321432    1.016215   -0.133887    0.037649   -0.702267    0.037165
12
* Frequency(12)  571.3383
C     1.321514    0.518496   -0.072777   -0.068302   -0.448171    0.039462
C     1.109175   -0.817930    0.032797   -0.077025   -0.512270    0.033973
N    -0.152373   -1.344381    0.103578   -0.144267    0.120043   -0.009213
C    -1.303319   -0.575774    0.076278    0.239336    0.494567   -0.047850
N    -1.058010    0.780216   -0.032013   -0.045501    0.424609   -0.027434
C     0.185580    1.426809   -0.112240    0.031042    0.033526    0.004606
O    -2.424404   -1.053547    0.141169    0.595277   -0.182780   -0.002755
O     0.240353    2.647240   -0.204710   -0.452311    0.068512    0.003536
H     1.922616   -1.545424    0.067591   -0.248560   -0.710888    0.043720
H    -0.283402   -2.349496    0.186263   -0.967183    0.242490    0.115970
H    -1.883441    1.377385   -0.056304    0.055848    0.567657   -0.059746
H     2.325711    0.936406   -0.129663    0.037649   -0.702267    0.037165
