12
* (null), Energy   -1000.0000000
C     1.321514    0.518496   -0.072777    0.413333    0.077762   -0.018862
C     1.109175   -0.817930    0.032797   -0.431368    0.115167    0.005914
N    -0.152373   -1.344381    0.103578   -0.327144   -0.008547    0.013540
C    -1.303319   -0.575774    0.076278   -0.295854   -0.133682    0.018862
N    -1.058010    0.780216   -0.032013    0.468000   -0.133159   -0.004904
C     0.185580    1.426809   -0.112240    0.589483    0.334052   -0.044843
O    -2.424404   -1.053547    0.141169   -0.178929   -0.538826    0.045522
O     0.240353    2.647240   -0.204710   -0.200919    0.409609   -0.023904
H     1.922616   -1.545424    0.067591   -0.602526   -0.071445    0.026288
H    -0.283402   -2.349496    0.186263   -0.119009   -0.043975   -0.060763
H    -1.883441    1.377385   -0.056304    0.728141    0.222705   -0.010478
H     2.325711    0.936406   -0.129663    0.781143   -0.773651    0.045702
12
* Frequency(11)  553.7074
C     1.368487    0.527333   -0.074920    0.413333    0.077762   -0.018862
C     1.060153   -0.804842    0.033469   -0.431368    0.115167    0.005914
N    -0.189552   -1.345353    0.105117   -0.327144   -0.008547    0.013540
C    -1.336941   -0.590966    0.078422   -0.295854   -0.133682    0.018862
N    -1.004824    0.765083   -0.032570    0.468000   -0.133159   -0.004904
C     0.252572    1.464772   -0.117336    0.589483    0.334052   -0.044843
O    -2.444739   -1.114781    0.146342   -0.178929   -0.538826    0.045522
O     0.217520    2.693790   -0.207427   -0.200919    0.409609   -0.023904
H     1.854142   -1.553543    0.070578   -0.602526   -0.071445    0.026288
H    -0.296926   -2.354494    0.179358   -0.119009   -0.043975   -0.060763
H    -1.800691    1.402694   -0.057495    0.728141    0.222705   -0.010478
H     2.414484    0.848485   -0.124469    0.781143   -0.773651    0.045702
12
* Frequency(11)  553.7074
C     1.410370    0.535213   -0.076832    0.413333    0.077762   -0.018862
C     1.016442   -0.793172    0.034069   -0.431368    0.115167    0.005914
N    -0.222701   -1.346219    0.106489   -0.327144   -0.008547    0.013540
C    -1.366920   -0.604512    0.080333   -0.295854   -0.133682    0.018862
N    -0.957402    0.751590   -0.033067    0.468000   -0.133159   -0.004904
C     0.312304    1.498621   -0.121880    0.589483    0.334052   -0.044843
O    -2.462869   -1.169380    0.150955   -0.178929   -0.538826    0.045522
O     0.197161    2.735295   -0.209849   -0.200919    0.409609   -0.023904
H     1.793088   -1.560783    0.073242   -0.602526   -0.071445    0.026288
H    -0.308986   -2.358950    0.173201   -0.119009   -0.043975   -0.060763
H    -1.726909    1.425261   -0.058557    0.728141    0.222705   -0.010478
H     2.493637    0.770091   -0.119838    0.781143   -0.773651    0.045702
12
* Frequency(11)  553.7074
C     1.442624    0.541281   -0.078304    0.413333    0.077762   -0.018862
C     0.982781   -0.784185    0.034530   -0.431368    0.115167    0.005914
N    -0.248229   -1.346886    0.107546   -0.327144   -0.008547    0.013540
C    -1.390007   -0.614944    0.081805   -0.295854   -0.133682    0.018862
N    -0.920882    0.741200   -0.033450    0.468000   -0.133159   -0.004904
C     0.358303    1.524689   -0.125379    0.589483    0.334052   -0.044843
O    -2.476832   -1.211427    0.154507   -0.178929   -0.538826    0.045522
O     0.181483    2.767259   -0.211714   -0.200919    0.409609   -0.023904
H     1.746071   -1.566358    0.075294   -0.602526   -0.071445    0.026288
H    -0.318272   -2.362382    0.168459   -0.119009   -0.043975   -0.060763
H    -1.670089    1.442639   -0.059375    0.728141    0.222705   -0.010478
H     2.554592    0.709720   -0.116272    0.781143   -0.773651    0.045702
12
* Frequency(11)  553.7074
C     1.461754    0.544880   -0.079177    0.413333    0.077762   -0.018862
C     0.962816   -0.778855    0.034804   -0.431368    0.115167    0.005914
N    -0.263370   -1.347281    0.108172   -0.327144   -0.008547    0.013540
C    -1.403700   -0.621131    0.082678   -0.295854   -0.133682    0.018862
N    -0.899222    0.735037   -0.033677    0.468000   -0.133159   -0.004904
C     0.385586    1.540149   -0.127454    0.589483    0.334052   -0.044843
O    -2.485113   -1.236365    0.156614   -0.178929   -0.538826    0.045522
O     0.172184    2.786216   -0.212821   -0.200919    0.409609   -0.023904
H     1.718185   -1.569664    0.076510   -0.602526   -0.071445    0.026288
H    -0.323780   -2.364417    0.165647   -0.119009   -0.043975   -0.060763
H    -1.636390    1.452947   -0.059860    0.728141    0.222705   -0.010478
H     2.590745    0.673914   -0.114157    0.781143   -0.773651    0.045702
12
* Frequency(11)  553.7074
C     1.465686    0.545620   -0.079356    0.413333    0.077762   -0.018862
C     0.958712   -0.777759    0.034860   -0.431368    0.115167    0.005914
N    -0.266483   -1.347362    0.108301   -0.327144   -0.008547    0.013540
C    -1.406514   -0.622403    0.082858   -0.295854   -0.133682    0.018862
N    -0.894770    0.733770   -0.033723    0.468000   -0.133159   -0.004904
C     0.391194    1.543327   -0.127881    0.589483    0.334052   -0.044843
O    -2.486816   -1.241492    0.157047   -0.178929   -0.538826    0.045522
O     0.170272    2.790113   -0.213048   -0.200919    0.409609   -0.023904
H     1.712452   -1.570344    0.076760   -0.602526   -0.071445    0.026288
H    -0.324913   -2.364835    0.165069   -0.119009   -0.043975   -0.060763
H    -1.629462    1.455066   -0.059959    0.728141    0.222705   -0.010478
H     2.598177    0.666553   -0.113722    0.781143   -0.773651    0.045702
12
* Frequency(11)  553.7074
C     1.453996    0.543420   -0.078823    0.413333    0.077762   -0.018862
C     0.970913   -0.781017    0.034693   -0.431368    0.115167    0.005914
N    -0.257230   -1.347121    0.107918   -0.327144   -0.008547    0.013540
C    -1.398147   -0.618622    0.082324   -0.295854   -0.133682    0.018862
N    -0.908006    0.737536   -0.033585    0.468000   -0.133159   -0.004904
C     0.374521    1.533879   -0.126613    0.589483    0.334052   -0.044843
O    -2.481755   -1.226251    0.155760   -0.178929   -0.538826    0.045522
O     0.175955    2.778528   -0.212372   -0.200919    0.409609   -0.023904
H     1.729494   -1.568323    0.076017   -0.602526   -0.071445    0.026288
H    -0.321547   -2.363591    0.166787   -0.119009   -0.043975   -0.060763
H    -1.650056    1.448767   -0.059663    0.728141    0.222705   -0.010478
H     2.576083    0.688435   -0.115015    0.781143   -0.773651    0.045702
12
* Frequency(11)  553.7074
C     1.427948    0.538520   -0.077634    0.413333    0.077762   -0.018862
C     0.998097   -0.788274    0.034320   -0.431368    0.115167    0.005914
N    -0.236614   -1.346582    0.107065   -0.327144   -0.008547    0.013540
C    -1.379503   -0.610198    0.081135   -0.295854   -0.133682    0.018862
N    -0.937499    0.745927   -0.033275    0.468000   -0.133159   -0.004904
C     0.337374    1.512828   -0.123787    0.589483    0.334052   -0.044843
O    -2.470479   -1.192296    0.152891   -0.178929   -0.538826    0.045522
O     0.188616    2.752716   -0.210866   -0.200919    0.409609   -0.023904
H     1.767464   -1.563821    0.074360   -0.602526   -0.071445    0.026288
H    -0.314047   -2.360820    0.170617   -0.119009   -0.043975   -0.060763
H    -1.695942    1.434732   -0.059003    0.728141    0.222705   -0.010478
H     2.526858    0.737189   -0.117895    0.781143   -0.773651    0.045702
12
* Frequency(11)  553.7074
C     1.390367    0.531450   -0.075919    0.413333    0.077762   -0.018862
C     1.037317   -0.798745    0.033782   -0.431368    0.115167    0.005914
N    -0.206870   -1.345805    0.105834   -0.327144   -0.008547    0.013540
C    -1.352603   -0.598043    0.079420   -0.295854   -0.133682    0.018862
N    -0.980050    0.758034   -0.032830    0.468000   -0.133159   -0.004904
C     0.283777    1.482455   -0.119710    0.589483    0.334052   -0.044843
O    -2.454211   -1.143305    0.148752   -0.178929   -0.538826    0.045522
O     0.206884    2.715473   -0.208692   -0.200919    0.409609   -0.023904
H     1.822246   -1.557325    0.071970   -0.602526   -0.071445    0.026288
H    -0.303226   -2.356822    0.176141   -0.119009   -0.043975   -0.060763
H    -1.762146    1.414484   -0.058050    0.728141    0.222705   -0.010478
H     2.455835    0.807530   -0.122050    0.781143   -0.773651    0.045702
12
* Frequency(11)  553.7074
C     1.345325    0.522976   -0.073863    0.413333    0.077762   -0.018862
C     1.084325   -0.811295    0.033138   -0.431368    0.115167    0.005914
N    -0.171220   -1.344874    0.104358   -0.327144   -0.008547    0.013540
C    -1.320363   -0.583475    0.077365   -0.295854   -0.133682    0.018862
N    -1.031050    0.772545   -0.032295    0.468000   -0.133159   -0.004904
C     0.219539    1.446053   -0.114823    0.589483    0.334052   -0.044843
O    -2.434712   -1.084587    0.143791   -0.178929   -0.538826    0.045522
O     0.228779    2.670837   -0.206087   -0.200919    0.409609   -0.023904
H     1.887906   -1.549540    0.069105   -0.602526   -0.071445    0.026288
H    -0.290257   -2.352030    0.182763   -0.119009   -0.043975   -0.060763
H    -1.841494    1.390215   -0.056908    0.728141    0.222705   -0.010478
H     2.370711    0.891838   -0.127030    0.781143   -0.773651    0.045702
12
* Frequency(11)  553.7074
C     1.297702    0.514017   -0.071690    0.413333    0.077762   -0.018862
C     1.134026   -0.824565    0.032456   -0.431368    0.115167    0.005914
N    -0.133527   -1.343889    0.102798   -0.327144   -0.008547    0.013540
C    -1.286276   -0.568073    0.075192   -0.295854   -0.133682    0.018862
N    -1.084971    0.787887   -0.031730    0.468000   -0.133159   -0.004904
C     0.151621    1.407564   -0.109656    0.589483    0.334052   -0.044843
O    -2.414097   -1.022506    0.138546   -0.178929   -0.538826    0.045522
O     0.251928    2.623643   -0.203333   -0.200919    0.409609   -0.023904
H     1.957327   -1.541308    0.066077   -0.602526   -0.071445    0.026288
H    -0.276546   -2.346963    0.189764   -0.119009   -0.043975   -0.060763
H    -1.925388    1.364556   -0.055701    0.728141    0.222705   -0.010478
H     2.280711    0.980975   -0.132296    0.781143   -0.773651    0.045702
12
* Frequency(11)  553.7074
C     1.252660    0.505543   -0.069635    0.413333    0.077762   -0.018862
C     1.181033   -0.837115    0.031812   -0.431368    0.115167    0.005914
N    -0.097877   -1.342957    0.101323   -0.327144   -0.008547    0.013540
C    -1.254035   -0.553505    0.073136   -0.295854   -0.133682    0.018862
N    -1.135970    0.802398   -0.031196    0.468000   -0.133159   -0.004904
C     0.087383    1.371162   -0.104770    0.589483    0.334052   -0.044843
O    -2.394598   -0.963788    0.133586   -0.178929   -0.538826    0.045522
O     0.273823    2.579007   -0.200728   -0.200919    0.409609   -0.023904
H     2.022986   -1.533523    0.063212   -0.602526   -0.071445    0.026288
H    -0.263577   -2.342171    0.196385   -0.119009   -0.043975   -0.060763
H    -2.004736    1.340287   -0.054559    0.728141    0.222705   -0.010478
H     2.195587    1.065282   -0.137276    0.781143   -0.773651    0.045702
12
* Frequency(11)  553.7074
C     1.215079    0.498472   -0.067920    0.413333    0.077762   -0.018862
C     1.220254   -0.847586    0.031274   -0.431368    0.115167    0.005914
N    -0.068133   -1.342180    0.100092   -0.327144   -0.008547    0.013540
C    -1.227136   -0.541350    0.071421   -0.295854   -0.133682    0.018862
N    -1.178522    0.814505   -0.030750    0.468000   -0.133159   -0.004904
C     0.033786    1.340789   -0.100692    0.589483    0.334052   -0.044843
O    -2.378330   -0.914797    0.129447   -0.178929   -0.538826    0.045522
O     0.292091    2.541764   -0.198555   -0.200919    0.409609   -0.023904
H     2.077769   -1.527027    0.060822   -0.602526   -0.071445    0.026288
H    -0.252756   -2.338173    0.201910   -0.119009   -0.043975   -0.060763
H    -2.070940    1.320038   -0.053606    0.728141    0.222705   -0.010478
H     2.124564    1.135624   -0.141432    0.781143   -0.773651    0.045702
12
* Frequency(11)  553.7074
C     1.189032    0.493572   -0.066731    0.413333    0.077762   -0.018862
C     1.247438   -0.854844    0.030902   -0.431368    0.115167    0.005914
N    -0.047517   -1.341642    0.099239   -0.327144   -0.008547    0.013540
C    -1.208492   -0.532926    0.070233   -0.295854   -0.133682    0.018862
N    -1.208014    0.822897   -0.030441    0.468000   -0.133159   -0.004904
C    -0.003362    1.319738   -0.097866    0.589483    0.334052   -0.044843
O    -2.367054   -0.880842    0.126578   -0.178929   -0.538826    0.045522
O     0.304752    2.515952   -0.197048   -0.200919    0.409609   -0.023904
H     2.115738   -1.522525    0.059165   -0.602526   -0.071445    0.026288
H    -0.245257   -2.335401    0.205739   -0.119009   -0.043975   -0.060763
H    -2.116825    1.306004   -0.052946    0.728141    0.222705   -0.010478
H     2.075338    1.184377   -0.144312    0.781143   -0.773651    0.045702
12
* Frequency(11)  553.7074
C     1.177341    0.491373   -0.066197    0.413333    0.077762   -0.018862
C     1.259638   -0.858101    0.030734   -0.431368    0.115167    0.005914
N    -0.038264   -1.341400    0.098856   -0.327144   -0.008547    0.013540
C    -1.200124   -0.529145    0.069699   -0.295854   -0.133682    0.018862
N    -1.221251    0.826663   -0.030302    0.468000   -0.133159   -0.004904
C    -0.020035    1.310290   -0.096598    0.589483    0.334052   -0.044843
O    -2.361993   -0.865602    0.125290   -0.178929   -0.538826    0.045522
O     0.310435    2.504366   -0.196372   -0.200919    0.409609   -0.023904
H     2.132780   -1.520504    0.058422   -0.602526   -0.071445    0.026288
H    -0.241890   -2.334158    0.207458   -0.119009   -0.043975   -0.060763
H    -2.137420    1.299705   -0.052650    0.728141    0.222705   -0.010478
H     2.053245    1.206259   -0.145604    0.781143   -0.773651    0.045702
12
* Frequency(11)  553.7074
C     1.181274    0.492113   -0.066377    0.413333    0.077762   -0.018862
C     1.255534   -0.857005    0.030791   -0.431368    0.115167    0.005914
N    -0.041377   -1.341481    0.098984   -0.327144   -0.008547    0.013540
C    -1.202939   -0.530417    0.069878   -0.295854   -0.133682    0.018862
N    -1.216798    0.825396   -0.030349    0.468000   -0.133159   -0.004904
C    -0.014426    1.313468   -0.097025    0.589483    0.334052   -0.044843
O    -2.363696   -0.870728    0.125724   -0.178929   -0.538826    0.045522
O     0.308523    2.508264   -0.196600   -0.200919    0.409609   -0.023904
H     2.127047   -1.521184    0.058672   -0.602526   -0.071445    0.026288
H    -0.243023   -2.334576    0.206880   -0.119009   -0.043975   -0.060763
H    -2.130492    1.301824   -0.052749    0.728141    0.222705   -0.010478
H     2.060677    1.198898   -0.145169    0.781143   -0.773651    0.045702
12
* Frequency(11)  553.7074
C     1.200404    0.495711   -0.067250    0.413333    0.077762   -0.018862
C     1.235570   -0.851675    0.031064   -0.431368    0.115167    0.005914
N    -0.056517   -1.341877    0.099611   -0.327144   -0.008547    0.013540
C    -1.216631   -0.536604    0.070751   -0.295854   -0.133682    0.018862
N    -1.195138    0.819233   -0.030576    0.468000   -0.133159   -0.004904
C     0.012856    1.328928   -0.099100    0.589483    0.334052   -0.044843
O    -2.371977   -0.895666    0.127830   -0.178929   -0.538826    0.045522
O     0.299224    2.527221   -0.197706   -0.200919    0.409609   -0.023904
H     2.099161   -1.524490    0.059888   -0.602526   -0.071445    0.026288
H    -0.248531   -2.336611    0.204067   -0.119009   -0.043975   -0.060763
H    -2.096792    1.312131   -0.053234    0.728141    0.222705   -0.010478
H     2.096829    1.163092   -0.143054    0.781143   -0.773651    0.045702
12
* Frequency(11)  553.7074
C     1.232658    0.501780   -0.068722    0.413333    0.077762   -0.018862
C     1.201908   -0.842688    0.031526   -0.431368    0.115167    0.005914
N    -0.082046   -1.342544    0.100668   -0.327144   -0.008547    0.013540
C    -1.239718   -0.547036    0.072223   -0.295854   -0.133682    0.018862
N    -1.158618    0.808842   -0.030958    0.468000   -0.133159   -0.004904
C     0.058856    1.354996   -0.102599    0.589483    0.334052   -0.044843
O    -2.385939   -0.937713    0.131383   -0.178929   -0.538826    0.045522
O     0.283546    2.559184   -0.199571   -0.200919    0.409609   -0.023904
H     2.052144   -1.530065    0.061940   -0.602526   -0.071445    0.026288
H    -0.257818   -2.340043    0.199326   -0.119009   -0.043975   -0.060763
H    -2.039973    1.329509   -0.054052    0.728141    0.222705   -0.010478
H     2.157785    1.102721   -0.139488    0.781143   -0.773651    0.045702
12
* Frequency(11)  553.7074
C     1.274541    0.509659   -0.070633    0.413333    0.077762   -0.018862
C     1.158198   -0.831018    0.032125   -0.431368    0.115167    0.005914
N    -0.115195   -1.343410    0.102040   -0.327144   -0.008547    0.013540
C    -1.269697   -0.560582    0.074135   -0.295854   -0.133682    0.018862
N    -1.111196    0.795349   -0.031455    0.468000   -0.133159   -0.004904
C     0.118588    1.388845   -0.107143    0.589483    0.334052   -0.044843
O    -2.404070   -0.992312    0.135995   -0.178929   -0.538826    0.045522
O     0.263187    2.600690   -0.201994   -0.200919    0.409609   -0.023904
H     1.991090   -1.537305    0.064603   -0.602526   -0.071445    0.026288
H    -0.269877   -2.344499    0.193169   -0.119009   -0.043975   -0.060763
H    -1.966190    1.352076   -0.055114    0.728141    0.222705   -0.010478
H     2.236938    1.024328   -0.134857    0.781143   -0.773651    0.045702
12
* Frequency(11)  553.7074
C     1.321514    0.518496   -0.072777    0.413333    0.077762   -0.018862
C     1.109175   -0.817930    0.032797   -0.431368    0.115167    0.005914
N    -0.152373   -1.344381    0.103578   -0.327144   -0.008547    0.013540
C    -1.303319   -0.575774    0.076278   -0.295854   -0.133682    0.018862
N    -1.058010    0.780216   -0.032013    0.468000   -0.133159   -0.004904
C     0.185580    1.426809   -0.112240    0.589483    0.334052   -0.044843
O    -2.424404   -1.053547    0.141169   -0.178929   -0.538826    0.045522
O     0.240353    2.647240   -0.204710   -0.200919    0.409609   -0.023904
H     1.922616   -1.545424    0.067591   -0.602526   -0.071445    0.026288
H    -0.283402   -2.349496    0.186263   -0.119009   -0.043975   -0.060763
H    -1.883441    1.377385   -0.056304    0.728141    0.222705   -0.010478
H     2.325711    0.936406   -0.129663    0.781143   -0.773651    0.045702
