12
* (null), Energy   -1000.0000000
C     1.321514    0.518496   -0.072777    0.246426    0.177147   -0.019595
C     1.109175   -0.817930    0.032797   -0.121096    0.193333   -0.011223
N    -0.152373   -1.344381    0.103578    0.073408   -0.652501    0.047366
C    -1.303319   -0.575774    0.076278   -0.099776    0.106113   -0.005306
N    -1.058010    0.780216   -0.032013   -0.248425    0.499791   -0.031450
C     0.185580    1.426809   -0.112240    0.150654   -0.098991    0.003986
O    -2.424404   -1.053547    0.141169    0.007953   -0.038724    0.002812
O     0.240353    2.647240   -0.204710   -0.070571   -0.186091    0.015616
H     1.922616   -1.545424    0.067591    0.471322    0.856599   -0.075958
H    -0.283402   -2.349496    0.186263    0.320257   -0.721453    0.038642
H    -1.883441    1.377385   -0.056304    0.173653    1.120515   -0.088237
H     2.325711    0.936406   -0.129663    0.361019   -0.064739   -0.005146
12
* Frequency(21)  993.8787
C     1.349519    0.538628   -0.075004    0.246426    0.177147   -0.019595
C     1.095413   -0.795959    0.031522   -0.121096    0.193333   -0.011223
N    -0.144031   -1.418535    0.108961    0.073408   -0.652501    0.047366
C    -1.314658   -0.563715    0.075675   -0.099776    0.106113   -0.005306
N    -1.086242    0.837015   -0.035587   -0.248425    0.499791   -0.031450
C     0.202701    1.415559   -0.111787    0.150654   -0.098991    0.003986
O    -2.423501   -1.057947    0.141488    0.007953   -0.038724    0.002812
O     0.232333    2.626092   -0.202936   -0.070571   -0.186091    0.015616
H     1.976180   -1.448076    0.058959    0.471322    0.856599   -0.075958
H    -0.247006   -2.431486    0.190655    0.320257   -0.721453    0.038642
H    -1.863706    1.504726   -0.066332    0.173653    1.120515   -0.088237
H     2.366739    0.929049   -0.130248    0.361019   -0.064739   -0.005146
12
* Frequency(21)  993.8787
C     1.374489    0.556578   -0.076989    0.246426    0.177147   -0.019595
C     1.083143   -0.776368    0.030384   -0.121096    0.193333   -0.011223
N    -0.136593   -1.484652    0.113761    0.073408   -0.652501    0.047366
C    -1.324768   -0.552962    0.075138   -0.099776    0.106113   -0.005306
N    -1.111415    0.887659   -0.038774   -0.248425    0.499791   -0.031450
C     0.217967    1.405528   -0.111383    0.150654   -0.098991    0.003986
O    -2.422695   -1.061871    0.141773    0.007953   -0.038724    0.002812
O     0.225183    2.607235   -0.201353   -0.070571   -0.186091    0.015616
H     2.023938   -1.361277    0.051262    0.471322    0.856599   -0.075958
H    -0.214554   -2.504590    0.194570    0.320257   -0.721453    0.038642
H    -1.846110    1.618267   -0.075273    0.173653    1.120515   -0.088237
H     2.403321    0.922489   -0.130769    0.361019   -0.064739   -0.005146
12
* Frequency(21)  993.8787
C     1.393719    0.570402   -0.078518    0.246426    0.177147   -0.019595
C     1.073693   -0.761282    0.029509   -0.121096    0.193333   -0.011223
N    -0.130864   -1.535569    0.117457    0.073408   -0.652501    0.047366
C    -1.332554   -0.544682    0.074723   -0.099776    0.106113   -0.005306
N    -1.130801    0.926659   -0.041228   -0.248425    0.499791   -0.031450
C     0.229723    1.397803   -0.111072    0.150654   -0.098991    0.003986
O    -2.422074   -1.064893    0.141993    0.007953   -0.038724    0.002812
O     0.219676    2.592714   -0.200135   -0.070571   -0.186091    0.015616
H     2.060718   -1.294433    0.045335    0.471322    0.856599   -0.075958
H    -0.189563   -2.560888    0.197586    0.320257   -0.721453    0.038642
H    -1.832559    1.705705   -0.082159    0.173653    1.120515   -0.088237
H     2.431492    0.917437   -0.131171    0.361019   -0.064739   -0.005146
12
* Frequency(21)  993.8787
C     1.405124    0.578601   -0.079425    0.246426    0.177147   -0.019595
C     1.068089   -0.752334    0.028989   -0.121096    0.193333   -0.011223
N    -0.127467   -1.565768    0.119649    0.073408   -0.652501    0.047366
C    -1.337172   -0.539771    0.074478   -0.099776    0.106113   -0.005306
N    -1.142298    0.949790   -0.042683   -0.248425    0.499791   -0.031450
C     0.236695    1.393222   -0.110887    0.150654   -0.098991    0.003986
O    -2.421706   -1.066685    0.142123    0.007953   -0.038724    0.002812
O     0.216410    2.584101   -0.199412   -0.070571   -0.186091    0.015616
H     2.082531   -1.254788    0.041819    0.471322    0.856599   -0.075958
H    -0.174741   -2.594278    0.199374    0.320257   -0.721453    0.038642
H    -1.824522    1.757565   -0.086242    0.173653    1.120515   -0.088237
H     2.448201    0.914441   -0.131409    0.361019   -0.064739   -0.005146
12
* Frequency(21)  993.8787
C     1.407468    0.580286   -0.079612    0.246426    0.177147   -0.019595
C     1.066936   -0.750495    0.028882   -0.121096    0.193333   -0.011223
N    -0.126769   -1.571977    0.120100    0.073408   -0.652501    0.047366
C    -1.338122   -0.538761    0.074427   -0.099776    0.106113   -0.005306
N    -1.144662    0.954546   -0.042983   -0.248425    0.499791   -0.031450
C     0.238129    1.392280   -0.110849    0.150654   -0.098991    0.003986
O    -2.421630   -1.067054    0.142150    0.007953   -0.038724    0.002812
O     0.215738    2.582330   -0.199263   -0.070571   -0.186091    0.015616
H     2.087016   -1.246638    0.041097    0.471322    0.856599   -0.075958
H    -0.171694   -2.601142    0.199742    0.320257   -0.721453    0.038642
H    -1.822870    1.768226   -0.087082    0.173653    1.120515   -0.088237
H     2.451636    0.913825   -0.131458    0.361019   -0.064739   -0.005146
12
* Frequency(21)  993.8787
C     1.400498    0.575276   -0.079057    0.246426    0.177147   -0.019595
C     1.070362   -0.755963    0.029200   -0.121096    0.193333   -0.011223
N    -0.128845   -1.553521    0.118760    0.073408   -0.652501    0.047366
C    -1.335300   -0.541763    0.074577   -0.099776    0.106113   -0.005306
N    -1.137635    0.940410   -0.042093   -0.248425    0.499791   -0.031450
C     0.233868    1.395080   -0.110962    0.150654   -0.098991    0.003986
O    -2.421855   -1.065958    0.142070    0.007953   -0.038724    0.002812
O     0.217734    2.587594   -0.199705   -0.070571   -0.186091    0.015616
H     2.073685   -1.270866    0.043245    0.471322    0.856599   -0.075958
H    -0.180752   -2.580737    0.198649    0.320257   -0.721453    0.038642
H    -1.827781    1.736533   -0.084586    0.173653    1.120515   -0.088237
H     2.441425    0.915656   -0.131313    0.361019   -0.064739   -0.005146
12
* Frequency(21)  993.8787
C     1.384969    0.564112   -0.077823    0.246426    0.177147   -0.019595
C     1.077993   -0.768146    0.029907   -0.121096    0.193333   -0.011223
N    -0.133471   -1.512402    0.115775    0.073408   -0.652501    0.047366
C    -1.329012   -0.548450    0.074912   -0.099776    0.106113   -0.005306
N    -1.121980    0.908914   -0.040111   -0.248425    0.499791   -0.031450
C     0.224374    1.401318   -0.111213    0.150654   -0.098991    0.003986
O    -2.422357   -1.063518    0.141893    0.007953   -0.038724    0.002812
O     0.222181    2.599321   -0.200689   -0.070571   -0.186091    0.015616
H     2.043983   -1.324847    0.048032    0.471322    0.856599   -0.075958
H    -0.200934   -2.535273    0.196214    0.320257   -0.721453    0.038642
H    -1.838725    1.665922   -0.079026    0.173653    1.120515   -0.088237
H     2.418675    0.919736   -0.130988    0.361019   -0.064739   -0.005146
12
* Frequency(21)  993.8787
C     1.362564    0.548006   -0.076041    0.246426    0.177147   -0.019595
C     1.089003   -0.785724    0.030928   -0.121096    0.193333   -0.011223
N    -0.140145   -1.453076    0.111469    0.073408   -0.652501    0.047366
C    -1.319940   -0.558098    0.075394   -0.099776    0.106113   -0.005306
N    -1.099393    0.863472   -0.037252   -0.248425    0.499791   -0.031450
C     0.210676    1.410318   -0.111576    0.150654   -0.098991    0.003986
O    -2.423080   -1.059997    0.141637    0.007953   -0.038724    0.002812
O     0.228598    2.616241   -0.202109   -0.070571   -0.186091    0.015616
H     2.001130   -1.402730    0.054938    0.471322    0.856599   -0.075958
H    -0.230053   -2.469677    0.192700    0.320257   -0.721453    0.038642
H    -1.854513    1.564042   -0.071003    0.173653    1.120515   -0.088237
H     2.385850    0.925622   -0.130520    0.361019   -0.064739   -0.005146
12
* Frequency(21)  993.8787
C     1.335710    0.528701   -0.073906    0.246426    0.177147   -0.019595
C     1.102199   -0.806792    0.032151   -0.121096    0.193333   -0.011223
N    -0.148145   -1.381971    0.106307    0.073408   -0.652501    0.047366
C    -1.309067   -0.569661    0.075973   -0.099776    0.106113   -0.005306
N    -1.072321    0.809008   -0.033824   -0.248425    0.499791   -0.031450
C     0.194259    1.421106   -0.112010    0.150654   -0.098991    0.003986
O    -2.423946   -1.055777    0.141331    0.007953   -0.038724    0.002812
O     0.236288    2.636520   -0.203811   -0.070571   -0.186091    0.015616
H     1.949768   -1.496077    0.063215    0.471322    0.856599   -0.075958
H    -0.264952   -2.391058    0.188489    0.320257   -0.721453    0.038642
H    -1.873437    1.441936   -0.061388    0.173653    1.120515   -0.088237
H     2.346508    0.932677   -0.129960    0.361019   -0.064739   -0.005146
12
* Frequency(21)  993.8787
C     1.307318    0.508291   -0.071648    0.246426    0.177147   -0.019595
C     1.116151   -0.829068    0.033444   -0.121096    0.193333   -0.011223
N    -0.156602   -1.306792    0.100850    0.073408   -0.652501    0.047366
C    -1.297571   -0.581887    0.076584   -0.099776    0.106113   -0.005306
N    -1.043699    0.751424   -0.030201   -0.248425    0.499791   -0.031450
C     0.176901    1.432511   -0.112469    0.150654   -0.098991    0.003986
O    -2.424863   -1.051316    0.141007    0.007953   -0.038724    0.002812
O     0.244419    2.657960   -0.205610   -0.070571   -0.186091    0.015616
H     1.895464   -1.594771    0.071967    0.471322    0.856599   -0.075958
H    -0.301851   -2.307935    0.184037    0.320257   -0.721453    0.038642
H    -1.893445    1.312834   -0.051221    0.173653    1.120515   -0.088237
H     2.304913    0.940136   -0.129367    0.361019   -0.064739   -0.005146
12
* Frequency(21)  993.8787
C     1.280464    0.488987   -0.069513    0.246426    0.177147   -0.019595
C     1.129348   -0.850136    0.034667   -0.121096    0.193333   -0.011223
N    -0.164602   -1.235687    0.095688    0.073408   -0.652501    0.047366
C    -1.286698   -0.593450    0.077162   -0.099776    0.106113   -0.005306
N    -1.016627    0.696960   -0.026774   -0.248425    0.499791   -0.031450
C     0.160484    1.443299   -0.112904    0.150654   -0.098991    0.003986
O    -2.425729   -1.047096    0.140700    0.007953   -0.038724    0.002812
O     0.252109    2.678239   -0.207311   -0.070571   -0.186091    0.015616
H     1.844103   -1.688118    0.080244    0.471322    0.856599   -0.075958
H    -0.336750   -2.229316    0.179826    0.320257   -0.721453    0.038642
H    -1.912368    1.190728   -0.041606    0.173653    1.120515   -0.088237
H     2.265572    0.947191   -0.128806    0.361019   -0.064739   -0.005146
12
* Frequency(21)  993.8787
C     1.258058    0.472880   -0.067731    0.246426    0.177147   -0.019595
C     1.140358   -0.867714    0.035687   -0.121096    0.193333   -0.011223
N    -0.171276   -1.176360    0.091381    0.073408   -0.652501    0.047366
C    -1.277626   -0.603098    0.077645   -0.099776    0.106113   -0.005306
N    -0.994040    0.651519   -0.023914   -0.248425    0.499791   -0.031450
C     0.146786    1.452299   -0.113266    0.150654   -0.098991    0.003986
O    -2.426452   -1.043575    0.140445    0.007953   -0.038724    0.002812
O     0.258526    2.695159   -0.208731   -0.070571   -0.186091    0.015616
H     1.801249   -1.766001    0.087150    0.471322    0.856599   -0.075958
H    -0.365869   -2.163720    0.176313    0.320257   -0.721453    0.038642
H    -1.928157    1.088849   -0.033583    0.173653    1.120515   -0.088237
H     2.232747    0.953077   -0.128338    0.361019   -0.064739   -0.005146
12
* Frequency(21)  993.8787
C     1.242529    0.461717   -0.066496    0.246426    0.177147   -0.019595
C     1.147989   -0.879897    0.036394   -0.121096    0.193333   -0.011223
N    -0.175902   -1.135241    0.088396    0.073408   -0.652501    0.047366
C    -1.271339   -0.609785    0.077979   -0.099776    0.106113   -0.005306
N    -0.978385    0.620023   -0.021932   -0.248425    0.499791   -0.031450
C     0.137292    1.458537   -0.113517    0.150654   -0.098991    0.003986
O    -2.426953   -1.041135    0.140267    0.007953   -0.038724    0.002812
O     0.262973    2.706886   -0.209715   -0.070571   -0.186091    0.015616
H     1.771548   -1.819982    0.091937    0.471322    0.856599   -0.075958
H    -0.386051   -2.118256    0.173878    0.320257   -0.721453    0.038642
H    -1.939100    1.018237   -0.028023    0.173653    1.120515   -0.088237
H     2.209997    0.957156   -0.128014    0.361019   -0.064739   -0.005146
12
* Frequency(21)  993.8787
C     1.235559    0.456707   -0.065942    0.246426    0.177147   -0.019595
C     1.151414   -0.885366    0.036712   -0.121096    0.193333   -0.011223
N    -0.177978   -1.116786    0.087057    0.073408   -0.652501    0.047366
C    -1.268517   -0.612787    0.078129   -0.099776    0.106113   -0.005306
N    -0.971358    0.605887   -0.021043   -0.248425    0.499791   -0.031450
C     0.133031    1.461337   -0.113630    0.150654   -0.098991    0.003986
O    -2.427178   -1.040040    0.140188    0.007953   -0.038724    0.002812
O     0.264969    2.712149   -0.210157   -0.070571   -0.186091    0.015616
H     1.758217   -1.844210    0.094085    0.471322    0.856599   -0.075958
H    -0.395109   -2.097850    0.172785    0.320257   -0.721453    0.038642
H    -1.944012    0.986544   -0.025527    0.173653    1.120515   -0.088237
H     2.199786    0.958988   -0.127868    0.361019   -0.064739   -0.005146
12
* Frequency(21)  993.8787
C     1.237904    0.458392   -0.066128    0.246426    0.177147   -0.019595
C     1.150262   -0.883526    0.036605   -0.121096    0.193333   -0.011223
N    -0.177280   -1.122994    0.087507    0.073408   -0.652501    0.047366
C    -1.269466   -0.611777    0.078079   -0.099776    0.106113   -0.005306
N    -0.973722    0.610642   -0.021342   -0.248425    0.499791   -0.031450
C     0.134464    1.460395   -0.113592    0.150654   -0.098991    0.003986
O    -2.427103   -1.040408    0.140215    0.007953   -0.038724    0.002812
O     0.264297    2.710379   -0.210008   -0.070571   -0.186091    0.015616
H     1.762701   -1.836060    0.093363    0.471322    0.856599   -0.075958
H    -0.392062   -2.104715    0.173153    0.320257   -0.721453    0.038642
H    -1.942359    0.997205   -0.026366    0.173653    1.120515   -0.088237
H     2.203220    0.958372   -0.127917    0.361019   -0.064739   -0.005146
12
* Frequency(21)  993.8787
C     1.249309    0.466591   -0.067035    0.246426    0.177147   -0.019595
C     1.144657   -0.874578    0.036086   -0.121096    0.193333   -0.011223
N    -0.173882   -1.153193    0.089700    0.073408   -0.652501    0.047366
C    -1.274084   -0.606866    0.077833   -0.099776    0.106113   -0.005306
N    -0.985220    0.633774   -0.022798   -0.248425    0.499791   -0.031450
C     0.141437    1.455814   -0.113407    0.150654   -0.098991    0.003986
O    -2.426735   -1.042200    0.140345    0.007953   -0.038724    0.002812
O     0.261031    2.701766   -0.209286   -0.070571   -0.186091    0.015616
H     1.784515   -1.796415    0.089847    0.471322    0.856599   -0.075958
H    -0.377240   -2.138105    0.174941    0.320257   -0.721453    0.038642
H    -1.934322    1.049065   -0.030450    0.173653    1.120515   -0.088237
H     2.219929    0.955375   -0.128155    0.361019   -0.064739   -0.005146
12
* Frequency(21)  993.8787
C     1.268539    0.480414   -0.068564    0.246426    0.177147   -0.019595
C     1.135208   -0.859492    0.035210   -0.121096    0.193333   -0.011223
N    -0.168154   -1.204110    0.093396    0.073408   -0.652501    0.047366
C    -1.281870   -0.598586    0.077419   -0.099776    0.106113   -0.005306
N    -1.004605    0.672774   -0.025252   -0.248425    0.499791   -0.031450
C     0.153193    1.448089   -0.113096    0.150654   -0.098991    0.003986
O    -2.426114   -1.045222    0.140564    0.007953   -0.038724    0.002812
O     0.255524    2.687245   -0.208067   -0.070571   -0.186091    0.015616
H     1.821294   -1.729571    0.083920    0.471322    0.856599   -0.075958
H    -0.352249   -2.194403    0.177956    0.320257   -0.721453    0.038642
H    -1.920772    1.136503   -0.037336    0.173653    1.120515   -0.088237
H     2.248101    0.950323   -0.128557    0.361019   -0.064739   -0.005146
12
* Frequency(21)  993.8787
C     1.293509    0.498364   -0.070550    0.246426    0.177147   -0.019595
C     1.122937   -0.839901    0.034073   -0.121096    0.193333   -0.011223
N    -0.160716   -1.270228    0.098195    0.073408   -0.652501    0.047366
C    -1.291980   -0.587833    0.076881   -0.099776    0.106113   -0.005306
N    -1.029778    0.723418   -0.028439   -0.248425    0.499791   -0.031450
C     0.168459    1.438058   -0.112693    0.150654   -0.098991    0.003986
O    -2.425308   -1.049146    0.140849    0.007953   -0.038724    0.002812
O     0.248373    2.668388   -0.206485   -0.070571   -0.186091    0.015616
H     1.869053   -1.642772    0.076223    0.471322    0.856599   -0.075958
H    -0.319797   -2.267507    0.181872    0.320257   -0.721453    0.038642
H    -1.903175    1.250044   -0.046277    0.173653    1.120515   -0.088237
H     2.284683    0.943763   -0.129078    0.361019   -0.064739   -0.005146
12
* Frequency(21)  993.8787
C     1.321514    0.518496   -0.072777    0.246426    0.177147   -0.019595
C     1.109175   -0.817930    0.032797   -0.121096    0.193333   -0.011223
N    -0.152373   -1.344381    0.103578    0.073408   -0.652501    0.047366
C    -1.303319   -0.575774    0.076278   -0.099776    0.106113   -0.005306
N    -1.058010    0.780216   -0.032013   -0.248425    0.499791   -0.031450
C     0.185580    1.426809   -0.112240    0.150654   -0.098991    0.003986
O    -2.424404   -1.053547    0.141169    0.007953   -0.038724    0.002812
O     0.240353    2.647240   -0.204710   -0.070571   -0.186091    0.015616
H     1.922616   -1.545424    0.067591    0.471322    0.856599   -0.075958
H    -0.283402   -2.349496    0.186263    0.320257   -0.721453    0.038642
H    -1.883441    1.377385   -0.056304    0.173653    1.120515   -0.088237
H     2.325711    0.936406   -0.129663    0.361019   -0.064739   -0.005146
