12
* (null), Energy   -1000.0000000
C     1.625816    0.316601   -0.065250    0.273017   -0.269777    0.070742
C     1.413215   -1.019528    0.041288    0.702006   -0.495004   -0.115856
N     0.151412   -1.546563    0.113379    0.265048   -0.062328    0.256174
C    -1.001718   -0.778391    0.084609   -0.307467   -0.158771   -0.698651
N    -0.754728    0.578612   -0.023325   -0.330898    0.208474    0.261122
C     0.489437    1.226278   -0.105125   -0.021711    0.308414   -0.180148
O    -2.121379   -1.255957    0.147970   -0.429048   -0.063064    0.221337
O     0.544888    2.445398   -0.199422   -0.037171    0.439737    0.005962
H     2.227146   -1.747036    0.075476    0.621370   -0.629799    0.152457
H     0.020614   -2.552189    0.190181    0.163909   -0.082229   -0.040831
H    -1.580237    1.175741   -0.048115   -0.411502    0.104396   -0.436971
H     2.630238    0.734097   -0.122298    0.245409   -0.071942    0.538439
12
* Frequency(17)  783.4793
C     1.656842    0.285943   -0.057211    0.273017   -0.269777    0.070742
C     1.492994   -1.075783    0.028122    0.702006   -0.495004   -0.115856
N     0.181533   -1.553647    0.142492    0.265048   -0.062328    0.256174
C    -1.036660   -0.796434    0.005211   -0.307467   -0.158771   -0.698651
N    -0.792333    0.602304    0.006351   -0.330898    0.208474    0.261122
C     0.486970    1.261328   -0.125598   -0.021711    0.308414   -0.180148
O    -2.170138   -1.263124    0.173124   -0.429048   -0.063064    0.221337
O     0.540664    2.495372   -0.198744   -0.037171    0.439737    0.005962
H     2.297762   -1.818610    0.092801    0.621370   -0.629799    0.152457
H     0.039242   -2.561534    0.185541    0.163909   -0.082229   -0.040831
H    -1.627003    1.187605   -0.097775   -0.411502    0.104396   -0.436971
H     2.658127    0.725921   -0.061107    0.245409   -0.071942    0.538439
12
* Frequency(17)  783.4793
C     1.684507    0.258606   -0.050042    0.273017   -0.269777    0.070742
C     1.564128   -1.125942    0.016382    0.702006   -0.495004   -0.115856
N     0.208391   -1.559962    0.168450    0.265048   -0.062328    0.256174
C    -1.067815   -0.812523   -0.065583   -0.307467   -0.158771   -0.698651
N    -0.825863    0.623429    0.032810   -0.330898    0.208474    0.261122
C     0.484770    1.292579   -0.143852   -0.021711    0.308414   -0.180148
O    -2.213614   -1.269514    0.195552   -0.429048   -0.063064    0.221337
O     0.536897    2.539930   -0.198140   -0.037171    0.439737    0.005962
H     2.360725   -1.882427    0.108250    0.621370   -0.629799    0.152457
H     0.055850   -2.569866    0.181403    0.163909   -0.082229   -0.040831
H    -1.668700    1.198184   -0.142053   -0.411502    0.104396   -0.436971
H     2.682994    0.718631   -0.006547    0.245409   -0.071942    0.538439
12
* Frequency(17)  783.4793
C     1.705812    0.237555   -0.044522    0.273017   -0.269777    0.070742
C     1.618909   -1.164569    0.007341    0.702006   -0.495004   -0.115856
N     0.229073   -1.564826    0.188440    0.265048   -0.062328    0.256174
C    -1.091808   -0.824912   -0.120101   -0.307467   -0.158771   -0.698651
N    -0.851684    0.639697    0.053186   -0.330898    0.208474    0.261122
C     0.483076    1.316646   -0.157910   -0.021711    0.308414   -0.180148
O    -2.247094   -1.274435    0.212824   -0.429048   -0.063064    0.221337
O     0.533997    2.574244   -0.197675   -0.037171    0.439737    0.005962
H     2.409213   -1.931573    0.120147    0.621370   -0.629799    0.152457
H     0.068641   -2.576283    0.178217    0.163909   -0.082229   -0.040831
H    -1.700811    1.206330   -0.176151   -0.411502    0.104396   -0.436971
H     2.702144    0.713018    0.035469    0.245409   -0.071942    0.538439
12
* Frequency(17)  783.4793
C     1.718447    0.225069   -0.041248    0.273017   -0.269777    0.070742
C     1.651399   -1.187479    0.001979    0.702006   -0.495004   -0.115856
N     0.241340   -1.567711    0.200296    0.265048   -0.062328    0.256174
C    -1.106038   -0.832260   -0.152436   -0.307467   -0.158771   -0.698651
N    -0.866999    0.649345    0.065272   -0.330898    0.208474    0.261122
C     0.482071    1.330920   -0.166247   -0.021711    0.308414   -0.180148
O    -2.266951   -1.277354    0.223068   -0.429048   -0.063064    0.221337
O     0.532276    2.594596   -0.197399   -0.037171    0.439737    0.005962
H     2.437971   -1.960721    0.127203    0.621370   -0.629799    0.152457
H     0.076227   -2.580089    0.176327    0.163909   -0.082229   -0.040831
H    -1.719856    1.211162   -0.196375   -0.411502    0.104396   -0.436971
H     2.713502    0.709688    0.060389    0.245409   -0.071942    0.538439
12
* Frequency(17)  783.4793
C     1.721045    0.222502   -0.040575    0.273017   -0.269777    0.070742
C     1.658078   -1.192188    0.000877    0.702006   -0.495004   -0.115856
N     0.243862   -1.568304    0.202734    0.265048   -0.062328    0.256174
C    -1.108964   -0.833771   -0.159083   -0.307467   -0.158771   -0.698651
N    -0.870147    0.651329    0.067756   -0.330898    0.208474    0.261122
C     0.481864    1.333854   -0.167961   -0.021711    0.308414   -0.180148
O    -2.271033   -1.277954    0.225174   -0.429048   -0.063064    0.221337
O     0.531923    2.598780   -0.197342   -0.037171    0.439737    0.005962
H     2.443883   -1.966713    0.128653    0.621370   -0.629799    0.152457
H     0.077786   -2.580871    0.175939    0.163909   -0.082229   -0.040831
H    -1.723771    1.212155   -0.200533   -0.411502    0.104396   -0.436971
H     2.715837    0.709004    0.065512    0.245409   -0.071942    0.538439
12
* Frequency(17)  783.4793
C     1.713323    0.230132   -0.042576    0.273017   -0.269777    0.070742
C     1.638222   -1.178188    0.004154    0.702006   -0.495004   -0.115856
N     0.236366   -1.566541    0.195488    0.265048   -0.062328    0.256174
C    -1.100267   -0.829280   -0.139323   -0.307467   -0.158771   -0.698651
N    -0.860788    0.645432    0.060370   -0.330898    0.208474    0.261122
C     0.482478    1.325131   -0.162866   -0.021711    0.308414   -0.180148
O    -2.258898   -1.276170    0.218913   -0.429048   -0.063064    0.221337
O     0.532974    2.586343   -0.197511   -0.037171    0.439737    0.005962
H     2.426308   -1.948900    0.124341    0.621370   -0.629799    0.152457
H     0.073150   -2.578545    0.177094    0.163909   -0.082229   -0.040831
H    -1.712132    1.209203   -0.188174   -0.411502    0.104396   -0.436971
H     2.708896    0.711038    0.050283    0.245409   -0.071942    0.538439
12
* Frequency(17)  783.4793
C     1.696118    0.247133   -0.047034    0.273017   -0.269777    0.070742
C     1.593984   -1.146994    0.011455    0.702006   -0.495004   -0.115856
N     0.219663   -1.562613    0.179345    0.265048   -0.062328    0.256174
C    -1.080891   -0.819275   -0.095296   -0.307467   -0.158771   -0.698651
N    -0.839936    0.632295    0.043915   -0.330898    0.208474    0.261122
C     0.483847    1.305696   -0.151513   -0.021711    0.308414   -0.180148
O    -2.231861   -1.272196    0.204965   -0.429048   -0.063064    0.221337
O     0.535316    2.558632   -0.197887   -0.037171    0.439737    0.005962
H     2.387151   -1.909212    0.114734    0.621370   -0.629799    0.152457
H     0.062821   -2.573363    0.179667    0.163909   -0.082229   -0.040831
H    -1.686201    1.202624   -0.160637   -0.411502    0.104396   -0.436971
H     2.693431    0.715572    0.016352    0.245409   -0.071942    0.538439
12
* Frequency(17)  783.4793
C     1.671295    0.271662   -0.053466    0.273017   -0.269777    0.070742
C     1.530156   -1.101987    0.021988    0.702006   -0.495004   -0.115856
N     0.195564   -1.556946    0.156053    0.265048   -0.062328    0.256174
C    -1.052936   -0.804839   -0.031773   -0.307467   -0.158771   -0.698651
N    -0.809850    0.613340    0.020174   -0.330898    0.208474    0.261122
C     0.485821    1.277654   -0.135134   -0.021711    0.308414   -0.180148
O    -2.192851   -1.266462    0.184841   -0.429048   -0.063064    0.221337
O     0.538696    2.518650   -0.198429   -0.037171    0.439737    0.005962
H     2.330655   -1.851949    0.100872    0.621370   -0.629799    0.152457
H     0.047918   -2.565887    0.183379    0.163909   -0.082229   -0.040831
H    -1.648786    1.193132   -0.120907   -0.411502    0.104396   -0.436971
H     2.671118    0.722113   -0.032604    0.245409   -0.071942    0.538439
12
* Frequency(17)  783.4793
C     1.641543    0.301060   -0.061175    0.273017   -0.269777    0.070742
C     1.453656   -1.048045    0.034614    0.702006   -0.495004   -0.115856
N     0.166681   -1.550154    0.128137    0.265048   -0.062328    0.256174
C    -1.019430   -0.787537    0.044361   -0.307467   -0.158771   -0.698651
N    -0.773791    0.590622   -0.008282   -0.330898    0.208474    0.261122
C     0.488187    1.244045   -0.115503   -0.021711    0.308414   -0.180148
O    -2.146096   -1.259590    0.160721   -0.429048   -0.063064    0.221337
O     0.542747    2.470730   -0.199079   -0.037171    0.439737    0.005962
H     2.262942   -1.783318    0.084258    0.621370   -0.629799    0.152457
H     0.030057   -2.556926    0.187829    0.163909   -0.082229   -0.040831
H    -1.603943    1.181755   -0.073288   -0.411502    0.104396   -0.436971
H     2.644375    0.729953   -0.091279    0.245409   -0.071942    0.538439
12
* Frequency(17)  783.4793
C     1.610088    0.332143   -0.069325    0.273017   -0.269777    0.070742
C     1.372774   -0.991012    0.047962    0.702006   -0.495004   -0.115856
N     0.136143   -1.542973    0.098621    0.265048   -0.062328    0.256174
C    -0.984005   -0.769244    0.124857   -0.307467   -0.158771   -0.698651
N    -0.735666    0.566602   -0.038367   -0.330898    0.208474    0.261122
C     0.490688    1.208511   -0.094747   -0.021711    0.308414   -0.180148
O    -2.096663   -1.252324    0.135219   -0.429048   -0.063064    0.221337
O     0.547029    2.420066   -0.199765   -0.037171    0.439737    0.005962
H     2.191350   -1.710755    0.066693    0.621370   -0.629799    0.152457
H     0.011172   -2.547452    0.192533    0.163909   -0.082229   -0.040831
H    -1.556532    1.169727   -0.022942   -0.411502    0.104396   -0.436971
H     2.616100    0.738242   -0.153316    0.245409   -0.071942    0.538439
12
* Frequency(17)  783.4793
C     1.580336    0.361541   -0.077034    0.273017   -0.269777    0.070742
C     1.296274   -0.937070    0.060588    0.702006   -0.495004   -0.115856
N     0.107260   -1.536181    0.070705    0.265048   -0.062328    0.256174
C    -0.950499   -0.751942    0.200992   -0.307467   -0.158771   -0.698651
N    -0.699607    0.543884   -0.066823   -0.330898    0.208474    0.261122
C     0.493054    1.174902   -0.075116   -0.021711    0.308414   -0.180148
O    -2.049908   -1.245451    0.111100   -0.429048   -0.063064    0.221337
O     0.551080    2.372146   -0.200415   -0.037171    0.439737    0.005962
H     2.123637   -1.642123    0.050079    0.621370   -0.629799    0.152457
H    -0.006690   -2.538491    0.196983    0.163909   -0.082229   -0.040831
H    -1.511689    1.158351    0.024676   -0.411502    0.104396   -0.436971
H     2.589357    0.746081   -0.211992    0.245409   -0.071942    0.538439
12
* Frequency(17)  783.4793
C     1.555513    0.386070   -0.083466    0.273017   -0.269777    0.070742
C     1.232446   -0.892063    0.071121    0.702006   -0.495004   -0.115856
N     0.083161   -1.530514    0.047413    0.265048   -0.062328    0.256174
C    -0.922544   -0.737507    0.264514   -0.307467   -0.158771   -0.698651
N    -0.669521    0.524930   -0.090564   -0.330898    0.208474    0.261122
C     0.495028    1.146861   -0.058736   -0.021711    0.308414   -0.180148
O    -2.010898   -1.239718    0.090975   -0.429048   -0.063064    0.221337
O     0.554459    2.332164   -0.200957   -0.037171    0.439737    0.005962
H     2.067141   -1.584861    0.036217    0.621370   -0.629799    0.152457
H    -0.021593   -2.531015    0.200695    0.163909   -0.082229   -0.040831
H    -1.474274    1.148859    0.064406   -0.411502    0.104396   -0.436971
H     2.567044    0.752622   -0.260947    0.245409   -0.071942    0.538439
12
* Frequency(17)  783.4793
C     1.538308    0.403071   -0.087924    0.273017   -0.269777    0.070742
C     1.188208   -0.860869    0.078422    0.702006   -0.495004   -0.115856
N     0.066459   -1.526586    0.031270    0.265048   -0.062328    0.256174
C    -0.903168   -0.727501    0.308541   -0.307467   -0.158771   -0.698651
N    -0.648669    0.511792   -0.107020   -0.330898    0.208474    0.261122
C     0.496396    1.127425   -0.047384   -0.021711    0.308414   -0.180148
O    -1.983861   -1.235743    0.077027   -0.429048   -0.063064    0.221337
O     0.556802    2.304453   -0.201333   -0.037171    0.439737    0.005962
H     2.027984   -1.545173    0.026610    0.621370   -0.629799    0.152457
H    -0.031922   -2.525833    0.203268    0.163909   -0.082229   -0.040831
H    -1.448342    1.142280    0.091943   -0.411502    0.104396   -0.436971
H     2.551579    0.757156   -0.294878    0.245409   -0.071942    0.538439
12
* Frequency(17)  783.4793
C     1.530586    0.410701   -0.089925    0.273017   -0.269777    0.070742
C     1.168352   -0.846869    0.081699    0.702006   -0.495004   -0.115856
N     0.058962   -1.524823    0.024024    0.265048   -0.062328    0.256174
C    -0.894472   -0.723011    0.328302   -0.307467   -0.158771   -0.698651
N    -0.639310    0.505896   -0.114405   -0.330898    0.208474    0.261122
C     0.497010    1.118702   -0.042289   -0.021711    0.308414   -0.180148
O    -1.971726   -1.233960    0.070767   -0.429048   -0.063064    0.221337
O     0.557853    2.292016   -0.201501   -0.037171    0.439737    0.005962
H     2.010410   -1.527360    0.022298    0.621370   -0.629799    0.152457
H    -0.036558   -2.523507    0.204423    0.163909   -0.082229   -0.040831
H    -1.436704    1.139327    0.104302   -0.411502    0.104396   -0.436971
H     2.544638    0.759191   -0.310107    0.245409   -0.071942    0.538439
12
* Frequency(17)  783.4793
C     1.533184    0.408134   -0.089252    0.273017   -0.269777    0.070742
C     1.175031   -0.851578    0.080597    0.702006   -0.495004   -0.115856
N     0.061484   -1.525416    0.026462    0.265048   -0.062328    0.256174
C    -0.897397   -0.724521    0.321655   -0.307467   -0.158771   -0.698651
N    -0.642458    0.507879   -0.111921   -0.330898    0.208474    0.261122
C     0.496804    1.121637   -0.044003   -0.021711    0.308414   -0.180148
O    -1.975808   -1.234560    0.072873   -0.429048   -0.063064    0.221337
O     0.557499    2.296200   -0.201445   -0.037171    0.439737    0.005962
H     2.016322   -1.533352    0.023749    0.621370   -0.629799    0.152457
H    -0.034998   -2.524290    0.204035    0.163909   -0.082229   -0.040831
H    -1.440619    1.140321    0.100144   -0.411502    0.104396   -0.436971
H     2.546973    0.758506   -0.304985    0.245409   -0.071942    0.538439
12
* Frequency(17)  783.4793
C     1.545819    0.395648   -0.085978    0.273017   -0.269777    0.070742
C     1.207522   -0.874488    0.075235    0.702006   -0.495004   -0.115856
N     0.073751   -1.528301    0.038318    0.265048   -0.062328    0.256174
C    -0.911627   -0.731869    0.289320   -0.307467   -0.158771   -0.698651
N    -0.657773    0.517528   -0.099835   -0.330898    0.208474    0.261122
C     0.495799    1.135911   -0.052340   -0.021711    0.308414   -0.180148
O    -1.995665   -1.237478    0.083117   -0.429048   -0.063064    0.221337
O     0.555779    2.316551   -0.201169   -0.037171    0.439737    0.005962
H     2.045080   -1.562500    0.030805    0.621370   -0.629799    0.152457
H    -0.027412   -2.528095    0.202145    0.163909   -0.082229   -0.040831
H    -1.459664    1.145152    0.079921   -0.411502    0.104396   -0.436971
H     2.558331    0.755177   -0.280065    0.245409   -0.071942    0.538439
12
* Frequency(17)  783.4793
C     1.567124    0.374597   -0.080458    0.273017   -0.269777    0.070742
C     1.262302   -0.913115    0.066194    0.702006   -0.495004   -0.115856
N     0.094433   -1.533164    0.058308    0.265048   -0.062328    0.256174
C    -0.935620   -0.744259    0.234801   -0.307467   -0.158771   -0.698651
N    -0.683594    0.533796   -0.079459   -0.330898    0.208474    0.261122
C     0.494105    1.159977   -0.066398   -0.021711    0.308414   -0.180148
O    -2.029145   -1.242400    0.100388   -0.429048   -0.063064    0.221337
O     0.552879    2.350866   -0.200704   -0.037171    0.439737    0.005962
H     2.093568   -1.611646    0.042701    0.621370   -0.629799    0.152457
H    -0.014622   -2.534512    0.198959    0.163909   -0.082229   -0.040831
H    -1.491775    1.153299    0.045822   -0.411502    0.104396   -0.436971
H     2.577481    0.749563   -0.238048    0.245409   -0.071942    0.538439
12
* Frequency(17)  783.4793
C     1.594789    0.347260   -0.073290    0.273017   -0.269777    0.070742
C     1.333436   -0.963274    0.054454    0.702006   -0.495004   -0.115856
N     0.121291   -1.539480    0.084266    0.265048   -0.062328    0.256174
C    -0.966776   -0.760347    0.164007   -0.307467   -0.158771   -0.698651
N    -0.717124    0.554920   -0.053000   -0.330898    0.208474    0.261122
C     0.491905    1.191229   -0.084652   -0.021711    0.308414   -0.180148
O    -2.072620   -1.248790    0.122816   -0.429048   -0.063064    0.221337
O     0.549112    2.395424   -0.200099   -0.037171    0.439737    0.005962
H     2.156531   -1.675463    0.058150    0.621370   -0.629799    0.152457
H     0.001987   -2.542844    0.194821    0.163909   -0.082229   -0.040831
H    -1.533472    1.163877    0.001544   -0.411502    0.104396   -0.436971
H     2.602348    0.742273   -0.183488    0.245409   -0.071942    0.538439
12
* Frequency(17)  783.4793
C     1.625816    0.316601   -0.065250    0.273017   -0.269777    0.070742
C     1.413215   -1.019528    0.041288    0.702006   -0.495004   -0.115856
N     0.151412   -1.546563    0.113379    0.265048   -0.062328    0.256174
C    -1.001718   -0.778391    0.084609   -0.307467   -0.158771   -0.698651
N    -0.754728    0.578612   -0.023325   -0.330898    0.208474    0.261122
C     0.489437    1.226278   -0.105125   -0.021711    0.308414   -0.180148
O    -2.121379   -1.255957    0.147970   -0.429048   -0.063064    0.221337
O     0.544888    2.445398   -0.199422   -0.037171    0.439737    0.005962
H     2.227146   -1.747036    0.075476    0.621370   -0.629799    0.152457
H     0.020614   -2.552189    0.190181    0.163909   -0.082229   -0.040831
H    -1.580237    1.175741   -0.048115   -0.411502    0.104396   -0.436971
H     2.630238    0.734097   -0.122298    0.245409   -0.071942    0.538439
