12
* (null), Energy   -1000.0000000
C     1.625816    0.316601   -0.065250   -0.171136    0.181860    0.079611
C     1.413215   -1.019528    0.041288   -0.455879    0.294937   -0.215496
N     0.151412   -1.546563    0.113379   -0.154696    0.081021    0.389387
C    -1.001718   -0.778391    0.084609    0.156490   -0.012422   -1.091376
N    -0.754728    0.578612   -0.023325    0.226749   -0.089757    0.409270
C     0.489437    1.226278   -0.105125    0.005687   -0.223468   -0.228922
O    -2.121379   -1.255957    0.147970    0.284431    0.072834    0.299916
O     0.544888    2.445398   -0.199422    0.025698   -0.274762    0.080872
H     2.227146   -1.747036    0.075476   -0.390523    0.421807    0.154325
H     0.020614   -2.552189    0.190181   -0.104494    0.045452   -0.076259
H    -1.580237    1.175741   -0.048115    0.237128   -0.143886   -0.679831
H     2.630238    0.734097   -0.122298   -0.126880    0.132434    0.811297
12
* Frequency(16)  783.1240
C     1.606367    0.337269   -0.056203   -0.171136    0.181860    0.079611
C     1.361407   -0.986010    0.016798   -0.455879    0.294937   -0.215496
N     0.133832   -1.537356    0.157631   -0.154696    0.081021    0.389387
C    -0.983933   -0.779802   -0.039420    0.156490   -0.012422   -1.091376
N    -0.728960    0.568412    0.023187    0.226749   -0.089757    0.409270
C     0.490084    1.200882   -0.131141    0.005687   -0.223468   -0.228922
O    -2.089055   -1.247680    0.182054    0.284431    0.072834    0.299916
O     0.547808    2.414173   -0.190231    0.025698   -0.274762    0.080872
H     2.182765   -1.699100    0.093014   -0.390523    0.421807    0.154325
H     0.008739   -2.547024    0.181515   -0.104494    0.045452   -0.076259
H    -1.553289    1.159389   -0.125375    0.237128   -0.143886   -0.679831
H     2.615818    0.749148   -0.030098   -0.126880    0.132434    0.811297
12
* Frequency(16)  783.1240
C     1.589026    0.355697   -0.048136   -0.171136    0.181860    0.079611
C     1.315213   -0.956124   -0.005038   -0.455879    0.294937   -0.215496
N     0.118156   -1.529146    0.197087   -0.154696    0.081021    0.389387
C    -0.968076   -0.781061   -0.150009    0.156490   -0.012422   -1.091376
N    -0.705983    0.559317    0.064658    0.226749   -0.089757    0.409270
C     0.490660    1.178238   -0.154337    0.005687   -0.223468   -0.228922
O    -2.060234   -1.240299    0.212444    0.284431    0.072834    0.299916
O     0.550412    2.386331   -0.182036    0.025698   -0.274762    0.080872
H     2.143194   -1.656359    0.108652   -0.390523    0.421807    0.154325
H    -0.001849   -2.542418    0.173787   -0.104494    0.045452   -0.076259
H    -1.529261    1.144810   -0.194262    0.237128   -0.143886   -0.679831
H     2.602962    0.762567    0.052111   -0.126880    0.132434    0.811297
12
* Frequency(16)  783.1240
C     1.575671    0.369888   -0.041924   -0.171136    0.181860    0.079611
C     1.279639   -0.933109   -0.021854   -0.455879    0.294937   -0.215496
N     0.106085   -1.522823    0.227472   -0.154696    0.081021    0.389387
C    -0.955865   -0.782030   -0.235173    0.156490   -0.012422   -1.091376
N    -0.688289    0.552313    0.096595    0.226749   -0.089757    0.409270
C     0.491104    1.160800   -0.172201    0.005687   -0.223468   -0.228922
O    -2.038039   -1.234616    0.235848    0.284431    0.072834    0.299916
O     0.552418    2.364891   -0.175726    0.025698   -0.274762    0.080872
H     2.112720   -1.623443    0.120694   -0.390523    0.421807    0.154325
H    -0.010003   -2.538871    0.167837   -0.104494    0.045452   -0.076259
H    -1.510757    1.133582   -0.247311    0.237128   -0.143886   -0.679831
H     2.593061    0.772901    0.115419   -0.126880    0.132434    0.811297
12
* Frequency(16)  783.1240
C     1.567751    0.378305   -0.038239   -0.171136    0.181860    0.079611
C     1.258540   -0.919459   -0.031828   -0.455879    0.294937   -0.215496
N     0.098925   -1.519074    0.245494   -0.154696    0.081021    0.389387
C    -0.948622   -0.782605   -0.285684    0.156490   -0.012422   -1.091376
N    -0.677795    0.548159    0.115537    0.226749   -0.089757    0.409270
C     0.491367    1.150458   -0.182796    0.005687   -0.223468   -0.228922
O    -2.024875   -1.231245    0.249729    0.284431    0.072834    0.299916
O     0.553607    2.352174   -0.171983    0.025698   -0.274762    0.080872
H     2.094646   -1.603921    0.127837   -0.390523    0.421807    0.154325
H    -0.014839   -2.536768    0.164307   -0.104494    0.045452   -0.076259
H    -1.499782    1.126922   -0.278775    0.237128   -0.143886   -0.679831
H     2.587189    0.779031    0.152968   -0.126880    0.132434    0.811297
12
* Frequency(16)  783.1240
C     1.566123    0.380035   -0.037482   -0.171136    0.181860    0.079611
C     1.254202   -0.916653   -0.033878   -0.455879    0.294937   -0.215496
N     0.097453   -1.518303    0.249199   -0.154696    0.081021    0.389387
C    -0.947133   -0.782723   -0.296068    0.156490   -0.012422   -1.091376
N    -0.675637    0.547305    0.119431    0.226749   -0.089757    0.409270
C     0.491421    1.148332   -0.184974    0.005687   -0.223468   -0.228922
O    -2.022169   -1.230552    0.252582    0.284431    0.072834    0.299916
O     0.553852    2.349560   -0.171213    0.025698   -0.274762    0.080872
H     2.090930   -1.599908    0.129305   -0.390523    0.421807    0.154325
H    -0.015834   -2.536335    0.163582   -0.104494    0.045452   -0.076259
H    -1.497526    1.125553   -0.285243    0.237128   -0.143886   -0.679831
H     2.585981    0.780291    0.160687   -0.126880    0.132434    0.811297
12
* Frequency(16)  783.1240
C     1.570963    0.374891   -0.039733   -0.171136    0.181860    0.079611
C     1.267097   -0.924995   -0.027783   -0.455879    0.294937   -0.215496
N     0.101829   -1.520594    0.238185   -0.154696    0.081021    0.389387
C    -0.951559   -0.782372   -0.265199    0.156490   -0.012422   -1.091376
N    -0.682051    0.549843    0.107855    0.226749   -0.089757    0.409270
C     0.491260    1.154652   -0.178499    0.005687   -0.223468   -0.228922
O    -2.030213   -1.232612    0.244099    0.284431    0.072834    0.299916
O     0.553125    2.357331   -0.173501    0.025698   -0.274762    0.080872
H     2.101976   -1.611838    0.124940   -0.390523    0.421807    0.154325
H    -0.012878   -2.537621    0.165738   -0.104494    0.045452   -0.076259
H    -1.504233    1.129623   -0.266015    0.237128   -0.143886   -0.679831
H     2.589570    0.776545    0.137740   -0.126880    0.132434    0.811297
12
* Frequency(16)  783.1240
C     1.581748    0.363431   -0.044750   -0.171136    0.181860    0.079611
C     1.295825   -0.943581   -0.014203   -0.455879    0.294937   -0.215496
N     0.111577   -1.525700    0.213647   -0.154696    0.081021    0.389387
C    -0.961421   -0.781589   -0.196424    0.156490   -0.012422   -1.091376
N    -0.696340    0.555500    0.082064    0.226749   -0.089757    0.409270
C     0.490902    1.168735   -0.164073    0.005687   -0.223468   -0.228922
O    -2.048137   -1.237202    0.225200    0.284431    0.072834    0.299916
O     0.551505    2.374646   -0.178597    0.025698   -0.274762    0.080872
H     2.126585   -1.638420    0.115215   -0.390523    0.421807    0.154325
H    -0.006293   -2.540485    0.170544   -0.104494    0.045452   -0.076259
H    -1.519176    1.138690   -0.223174    0.237128   -0.143886   -0.679831
H     2.597566    0.768199    0.086614   -0.126880    0.132434    0.811297
12
* Frequency(16)  783.1240
C     1.597307    0.346896   -0.051988   -0.171136    0.181860    0.079611
C     1.337274   -0.970397    0.005390   -0.455879    0.294937   -0.215496
N     0.125643   -1.533067    0.178244   -0.154696    0.081021    0.389387
C    -0.975649   -0.780460   -0.097194    0.156490   -0.012422   -1.091376
N    -0.716956    0.563660    0.044852    0.226749   -0.089757    0.409270
C     0.490385    1.189053   -0.143259    0.005687   -0.223468   -0.228922
O    -2.073998   -1.243824    0.197931    0.284431    0.072834    0.299916
O     0.549169    2.399628   -0.185950    0.025698   -0.274762    0.080872
H     2.162092   -1.676771    0.101183   -0.390523    0.421807    0.154325
H     0.003208   -2.544618    0.177478   -0.104494    0.045452   -0.076259
H    -1.540736    1.151773   -0.161363    0.237128   -0.143886   -0.679831
H     2.609102    0.756158    0.012850   -0.126880    0.132434    0.811297
12
* Frequency(16)  783.1240
C     1.615957    0.327078   -0.060664   -0.171136    0.181860    0.079611
C     1.386953   -1.002538    0.028874   -0.455879    0.294937   -0.215496
N     0.142500   -1.541896    0.135811   -0.154696    0.081021    0.389387
C    -0.992703   -0.779106    0.021737    0.156490   -0.012422   -1.091376
N    -0.741666    0.573441    0.000253    0.226749   -0.089757    0.409270
C     0.489765    1.213405   -0.118313    0.005687   -0.223468   -0.228922
O    -2.104994   -1.251761    0.165248    0.284431    0.072834    0.299916
O     0.546368    2.429569   -0.194763    0.025698   -0.274762    0.080872
H     2.204649   -1.722737    0.084366   -0.390523    0.421807    0.154325
H     0.014595   -2.549571    0.185788   -0.104494    0.045452   -0.076259
H    -1.566577    1.167452   -0.087279    0.237128   -0.143886   -0.679831
H     2.622928    0.741726   -0.075560   -0.126880    0.132434    0.811297
12
* Frequency(16)  783.1240
C     1.635674    0.306125   -0.069836   -0.171136    0.181860    0.079611
C     1.439477   -1.036519    0.053702   -0.455879    0.294937   -0.215496
N     0.160324   -1.551231    0.090947   -0.154696    0.081021    0.389387
C    -1.010733   -0.777675    0.147481    0.156490   -0.012422   -1.091376
N    -0.767791    0.583783   -0.046902    0.226749   -0.089757    0.409270
C     0.489110    1.239152   -0.091937    0.005687   -0.223468   -0.228922
O    -2.137765   -1.260153    0.130693    0.284431    0.072834    0.299916
O     0.543407    2.461226   -0.204081    0.025698   -0.274762    0.080872
H     2.249644   -1.771336    0.066585   -0.390523    0.421807    0.154325
H     0.026634   -2.554807    0.194574   -0.104494    0.045452   -0.076259
H    -1.593898    1.184030   -0.008952    0.237128   -0.143886   -0.679831
H     2.637547    0.726468   -0.169035   -0.126880    0.132434    0.811297
12
* Frequency(16)  783.1240
C     1.654324    0.286307   -0.078512   -0.171136    0.181860    0.079611
C     1.489156   -1.068660    0.077186   -0.455879    0.294937   -0.215496
N     0.177182   -1.560060    0.048514   -0.154696    0.081021    0.389387
C    -1.027786   -0.776321    0.266413    0.156490   -0.012422   -1.091376
N    -0.792500    0.593564   -0.091501    0.226749   -0.089757    0.409270
C     0.488490    1.263504   -0.066991    0.005687   -0.223468   -0.228922
O    -2.168760   -1.268090    0.098010    0.284431    0.072834    0.299916
O     0.540607    2.491168   -0.212894    0.025698   -0.274762    0.080872
H     2.292200   -1.817302    0.049768   -0.390523    0.421807    0.154325
H     0.038021   -2.559761    0.202884   -0.104494    0.045452   -0.076259
H    -1.619739    1.199710    0.065132    0.237128   -0.143886   -0.679831
H     2.651373    0.712036   -0.257445   -0.126880    0.132434    0.811297
12
* Frequency(16)  783.1240
C     1.669883    0.269772   -0.085750   -0.171136    0.181860    0.079611
C     1.530605   -1.095476    0.096779   -0.455879    0.294937   -0.215496
N     0.191247   -1.567427    0.013111   -0.154696    0.081021    0.389387
C    -1.042014   -0.775192    0.365642    0.156490   -0.012422   -1.091376
N    -0.813117    0.601725   -0.128713    0.226749   -0.089757    0.409270
C     0.487973    1.283822   -0.046177    0.005687   -0.223468   -0.228922
O    -2.194621   -1.274712    0.070741    0.284431    0.072834    0.299916
O     0.538270    2.516150   -0.220247    0.025698   -0.274762    0.080872
H     2.327707   -1.855653    0.035736   -0.390523    0.421807    0.154325
H     0.047522   -2.563893    0.209818   -0.104494    0.045452   -0.076259
H    -1.641299    1.212793    0.126943    0.237128   -0.143886   -0.679831
H     2.662910    0.699995   -0.331209   -0.126880    0.132434    0.811297
12
* Frequency(16)  783.1240
C     1.680668    0.258312   -0.090767   -0.171136    0.181860    0.079611
C     1.559334   -1.114062    0.110359   -0.455879    0.294937   -0.215496
N     0.200995   -1.572532   -0.011427   -0.154696    0.081021    0.389387
C    -1.051876   -0.774409    0.434418    0.156490   -0.012422   -1.091376
N    -0.827406    0.607381   -0.154504    0.226749   -0.089757    0.409270
C     0.487614    1.297904   -0.031751    0.005687   -0.223468   -0.228922
O    -2.212545   -1.279302    0.051841    0.284431    0.072834    0.299916
O     0.536651    2.533465   -0.225343    0.025698   -0.274762    0.080872
H     2.352317   -1.882234    0.026011   -0.390523    0.421807    0.154325
H     0.054107   -2.566758    0.214623   -0.104494    0.045452   -0.076259
H    -1.656242    1.221860    0.169784    0.237128   -0.143886   -0.679831
H     2.670905    0.691649   -0.382335   -0.126880    0.132434    0.811297
12
* Frequency(16)  783.1240
C     1.685508    0.253168   -0.093019   -0.171136    0.181860    0.079611
C     1.572228   -1.122404    0.116454   -0.455879    0.294937   -0.215496
N     0.205371   -1.574824   -0.022441   -0.154696    0.081021    0.389387
C    -1.056302   -0.774058    0.465286    0.156490   -0.012422   -1.091376
N    -0.833819    0.609920   -0.166080    0.226749   -0.089757    0.409270
C     0.487454    1.304225   -0.025276    0.005687   -0.223468   -0.228922
O    -2.220590   -1.281362    0.043358    0.284431    0.072834    0.299916
O     0.535924    2.541236   -0.227631    0.025698   -0.274762    0.080872
H     2.363362   -1.894164    0.021646   -0.390523    0.421807    0.154325
H     0.057062   -2.568043    0.216780   -0.104494    0.045452   -0.076259
H    -1.662949    1.225930    0.189013    0.237128   -0.143886   -0.679831
H     2.674494    0.687903   -0.405282   -0.126880    0.132434    0.811297
12
* Frequency(16)  783.1240
C     1.683880    0.254898   -0.092261   -0.171136    0.181860    0.079611
C     1.567890   -1.119598    0.114404   -0.455879    0.294937   -0.215496
N     0.203899   -1.574053   -0.018736   -0.154696    0.081021    0.389387
C    -1.054813   -0.774176    0.454903    0.156490   -0.012422   -1.091376
N    -0.831662    0.609066   -0.162186    0.226749   -0.089757    0.409270
C     0.487508    1.302099   -0.027454    0.005687   -0.223468   -0.228922
O    -2.217884   -1.280669    0.046212    0.284431    0.072834    0.299916
O     0.536169    2.538622   -0.226861    0.025698   -0.274762    0.080872
H     2.359647   -1.890151    0.023115   -0.390523    0.421807    0.154325
H     0.056068   -2.567611    0.216055   -0.104494    0.045452   -0.076259
H    -1.660693    1.224561    0.182544    0.237128   -0.143886   -0.679831
H     2.673287    0.689163   -0.397563   -0.126880    0.132434    0.811297
12
* Frequency(16)  783.1240
C     1.675960    0.263315   -0.088577   -0.171136    0.181860    0.079611
C     1.546791   -1.105947    0.104430   -0.455879    0.294937   -0.215496
N     0.196739   -1.570303   -0.000715   -0.154696    0.081021    0.389387
C    -1.047571   -0.774751    0.404392    0.156490   -0.012422   -1.091376
N    -0.821168    0.604912   -0.143244    0.226749   -0.089757    0.409270
C     0.487771    1.291756   -0.038049    0.005687   -0.223468   -0.228922
O    -2.204720   -1.277298    0.060092    0.284431    0.072834    0.299916
O     0.537358    2.525905   -0.223118    0.025698   -0.274762    0.080872
H     2.341573   -1.870629    0.030257   -0.390523    0.421807    0.154325
H     0.051232   -2.565507    0.212525   -0.104494    0.045452   -0.076259
H    -1.649718    1.217901    0.151081    0.237128   -0.143886   -0.679831
H     2.667414    0.695293   -0.360014   -0.126880    0.132434    0.811297
12
* Frequency(16)  783.1240
C     1.662605    0.277506   -0.082364   -0.171136    0.181860    0.079611
C     1.511217   -1.082932    0.087614   -0.455879    0.294937   -0.215496
N     0.184668   -1.563981    0.029671   -0.154696    0.081021    0.389387
C    -1.035359   -0.775720    0.319227    0.156490   -0.012422   -1.091376
N    -0.803474    0.597908   -0.111307    0.226749   -0.089757    0.409270
C     0.488215    1.274318   -0.055913    0.005687   -0.223468   -0.228922
O    -2.182525   -1.271614    0.083496    0.284431    0.072834    0.299916
O     0.539363    2.504465   -0.216807    0.025698   -0.274762    0.080872
H     2.311099   -1.837714    0.042300   -0.390523    0.421807    0.154325
H     0.043078   -2.561960    0.206575   -0.104494    0.045452   -0.076259
H    -1.631214    1.206673    0.098031    0.237128   -0.143886   -0.679831
H     2.657513    0.705627   -0.296706   -0.126880    0.132434    0.811297
12
* Frequency(16)  783.1240
C     1.645264    0.295934   -0.074297   -0.171136    0.181860    0.079611
C     1.465023   -1.053046    0.065778   -0.455879    0.294937   -0.215496
N     0.168992   -1.555771    0.069127   -0.154696    0.081021    0.389387
C    -1.019502   -0.776979    0.208639    0.156490   -0.012422   -1.091376
N    -0.780497    0.588813   -0.069836    0.226749   -0.089757    0.409270
C     0.488791    1.251674   -0.079109    0.005687   -0.223468   -0.228922
O    -2.153703   -1.264234    0.113886    0.284431    0.072834    0.299916
O     0.541967    2.476623   -0.208613    0.025698   -0.274762    0.080872
H     2.271527   -1.794972    0.057937   -0.390523    0.421807    0.154325
H     0.032490   -2.557355    0.198847   -0.104494    0.045452   -0.076259
H    -1.607186    1.192093    0.029144    0.237128   -0.143886   -0.679831
H     2.644657    0.719047   -0.214497   -0.126880    0.132434    0.811297
12
* Frequency(16)  783.1240
C     1.625816    0.316601   -0.065250   -0.171136    0.181860    0.079611
C     1.413215   -1.019528    0.041288   -0.455879    0.294937   -0.215496
N     0.151412   -1.546563    0.113379   -0.154696    0.081021    0.389387
C    -1.001718   -0.778391    0.084609    0.156490   -0.012422   -1.091376
N    -0.754728    0.578612   -0.023325    0.226749   -0.089757    0.409270
C     0.489437    1.226278   -0.105125    0.005687   -0.223468   -0.228922
O    -2.121379   -1.255957    0.147970    0.284431    0.072834    0.299916
O     0.544888    2.445398   -0.199422    0.025698   -0.274762    0.080872
H     2.227146   -1.747036    0.075476   -0.390523    0.421807    0.154325
H     0.020614   -2.552189    0.190181   -0.104494    0.045452   -0.076259
H    -1.580237    1.175741   -0.048115    0.237128   -0.143886   -0.679831
H     2.630238    0.734097   -0.122298   -0.126880    0.132434    0.811297
