
                                 *****************
                                 * O   R   C   A *
                                 *****************

                                            #,                                       
                                            ###                                      
                                            ####                                     
                                            #####                                    
                                            ######                                   
                                           ########,                                 
                                     ,,################,,,,,                         
                               ,,#################################,,                 
                          ,,##########################################,,             
                       ,#########################################, ''#####,          
                    ,#############################################,,   '####,        
                  ,##################################################,,,,####,       
                ,###########''''           ''''###############################       
              ,#####''   ,,,,##########,,,,          '''####'''          '####       
            ,##' ,,,,###########################,,,                        '##       
           ' ,,###''''                  '''############,,,                           
         ,,##''                                '''############,,,,        ,,,,,,###''
      ,#''                                            '''#######################'''  
     '                                                          ''''####''''         
             ,#######,   #######,   ,#######,      ##                                
            ,#'     '#,  ##    ##  ,#'     '#,    #''#        ,####,    ,#,          
            ##       ##  ##   ,#'  ##            #'  '#       #'       ,# #          
            ##       ##  #######   ##           ,######,      #####,      #          
            '#,     ,#'  ##    ##  '#,     ,#' ,#      #,     #,   #      #          
             '#######'   ##     ##  '#######'  #'      '#     '####' #    #          



                #########################################################
                #                        -***-                          #
                #          Department of theory and spectroscopy        #
                #                                                       #
                #                      Frank Neese                      #
                #                                                       #
                #     Directorship, Architecture, Infrastructure        #
                #                    SHARK, DRIVERS                     #
                #        Core code/Algorithms in most modules           #
                #                                                       #
                #        Max Planck Institute fuer Kohlenforschung      #
                #                Kaiser Wilhelm Platz 1                 #
                #                 D-45470 Muelheim/Ruhr                 #
                #                      Germany                          #
                #                                                       #
                #                  All rights reserved                  #
                #                        -***-                          #
                #########################################################


                         Program Version 6.1.0-f.0  -   RELEASE   -


 With contributions from (in alphabetic order):
[Max-Planck-Institut fuer Kohlenforschung]                               
  Daniel Aravena         : Magnetic Suceptibility                        
  Michael Atanasov       : Ab Initio Ligand Field Theory (pilot matlab implementation)
  Alexander A. Auer      : GIAO ZORA, VPT2 properties, NMR spectrum      
  Ute Becker             : All parallelization in ORCA, NUMFREQ, NUMCALC 
  Giovanni Bistoni       : ED, misc. LED, open-shell LED, HFLD           
  Dmytro Bykov           : pre 5.0 version of the SCF Hessian            
  Marcos Casanova-Páez   : Triplet and SCS-CIS(D). UHF-(DLPNO)-IP/EA/STEOM-CCSD. UHF-CVS-IP/STEOM-CCSD   
  Vijay G. Chilkuri      : MRCI spin determinant printing, contributions to CSF-ICE 
  Pauline Colinet        : FMM embedding                                 
  Dipayan Datta          : RHF DLPNO-CCSD density                        
  Achintya Kumar Dutta   : EOM-CC, STEOM-CC                              
  Nicolas Foglia         : Exact transition moments, OPA infrastructure, MCD improvements    
  Dmitry Ganyushin       : Spin-Orbit,Spin-Spin,Magnetic field MRCI      
  Miquel Garcia-Rates    : C-PCM and meta-GGA Hessian, CCSD/C-PCM, Gaussian charge scheme 
  Tiago L. C. Gouveia    : GS-ROHF, GS-ROCIS                             
  Yang Guo               : DLPNO-NEVPT2, F12-NEVPT2, CIM, IAO-localization        
  Andreas Hansen         : Spin unrestricted coupled pair/coupled cluster methods 
  Ingolf Harden          : AUTO-CI MPn and infrastructure                
  Benjamin Helmich-Paris : MC-RPA, TRAH-(SCF,CASSCF), AVAS, COSX integrals, SCF dyn. polar., MC-PDFT, srDFT 
  Lee Huntington         : MR-EOM, pCC                                   
  Robert Izsak           : Overlap fitted RIJCOSX, COSX-SCS-MP3, EOM     
  Riya Kayal             : Wick's Theorem for AUTO-CI, AUTO-CI UHF-CCSDT 
  Emily Kempfer          : AUTO-CI RHF CISDT and CCSDT, approximate NEVPT4
  Christian Kollmar      : KDIIS, OOCD, Brueckner-CCSD(T), CCSD density, CASPT2, CASPT2-K, improved NEVPT2 
  Axel Koslowski         : Symmetry handling                             
  Simone Kossmann        : meta-GGA functionals, TD-DFT gradient, OOMP2, (MP2 Hessian; deprecated post 5.0) 
  Lucas Lang             : DCDCAS, Hyperfine gauge corrections, ICE-SOC+SSC
  Marvin Lechner         : AUTO-CI (C++ implementation), FIC-MRCC        
  Spencer Leger          : CASSCF response                               
  Dagmar Lenk            : GEPOL surface, SMD, ORCA-2-JSON               
  Dimitrios Liakos       : Extrapolation schemes; Compound Job, Property file
  Dimitrios Manganas     : Further ROCIS development; embedding schemes. LFT, Crystal Embedding 
  Dimitrios Pantazis     : SARC Basis sets                               
  Anastasios Papadopoulos: AUTO-CI, single reference methods and gradients 
  Taras Petrenko         : pre 6.0 DFT Hessian and TD-DFT gradient,  ECA, NRVS 
  Petra Pikulova         : Analytic Raman intensities                    
  Peter Pinski           : DLPNO-MP2, DLPNO-MP2 Gradient                 
  Shashank Vittal Rao    : ES-AILFT, MagRelax                            
  Christoph Reimann      : Effective Core Potentials                     
  Marius Retegan         : Local ZFS, SOC                                
  Christoph Riplinger    : Optimizer, TS searches, QM/MM, DLPNO-CCSD(T), (RO)-DLPNO pert. Triples 
  Michael Roemelt        : Original ROCIS implementation, recursive CI coupling coefficients
  Masaaki Saitow         : Open-shell DLPNO-CCSD energy and density      
  Barbara Sandhoefer     : DKH picture change effects                    
  Yorick L. A. Schmerwitz: GMF and freeze-and-release deltaSCF, NEB S-IDPP initial path                    
  Kantharuban Sivalingam : CASSCF convergence/infrastructure, NEVPT2, NEVPT3, NEVPT4(SD), FIC-MRCI and CEPA variants
  Bernardo de Souza      : ESD, SOC TD-DFT                               
  Georgi L. Stoychev     : AutoAux, RI-MP2 NMR, DLPNO-MP2 response, X2C  
  Van Anh Tran           : RI-MP2 g-tensors                              
  Willem Van den Heuvel  : Paramagnetic NMR                              
  Zikuan Wang            : NOTCH, Electric field optimization            
  Frank Wennmohs         : Technical directorship and infrastructure     
  Hang Xu                : AUTO-CI-Response properties                   
                                                                         
[FACCTs GmbH]                                                            
  Markus Bursch, Nicolas Foglia, Miquel Garcia-Rates, Ingolf Harden, Hagen Neugebauer, Anastasios Papadopoulos, 
  Christoph Riplinger, Bernardo de Souza, Georgi L. Stoychev                                                    
                                                                 
  APM, various basis sets, CI-OPT, improved COSX, DLPNO-Multilevel,           
  DOCKER, DRACO, updates on ESD, Fragmentator, GOAT, IRC, LR-CPCM, L-BFGS, MBIS, meta-GGA TD-DFT gradient, ML-optimized integration grids, 
  MM, NACMEs, nearIR, NEB, NEB-TS, NL-DFT gradient (VV10), 2- and 3-layer-ONIOM, interface openCOSMO-RS, QMMM,   
  Crystal-QMMM, RESP, rigid body optimization, SF, symmetry and pop. for TD-DFT, various functionals, SOLVATOR                                   
                                                                         
[Other institutions]                                                     
  V. Asgeirsson          : NEB                                           
  Christoph Bannwarth    : sTDA-DFT, sTD-DFT, PBEh-3c, B97-3c, D3        
  Giovanni Bistoni       : ETS/NOCV, ADLD/ADEX, COVALED                  
  Martin Brehm           : Molecular dynamics                            
  Ronald Cardenas        : ETS/NOCV                                      
  Martina Colucci        : COVALED                                       
  Sebastian Ehlert       : rSCAN, r2SCAN, r2SCAN-3c, D4, dhf basis sets  
  Marvin Friede          : D4 for Fr, Ra, Ac-Lr                          
  Lars Goerigk           : TD-DFT with DH, B97 family of functionals     
  Stefan Grimme          : VdW corrections, initial TS optimization, DFT functionals, gCP, sTDA/sTD-DF 
  Waldemar Hujo          : DFT-NL                                        
  H. Jonsson             : NEB                                           
  Holger Kruse           : gCP                                           
  Marcel Mueller         : wB97X-3c, vDZP basis set                      
  Hagen Neugebauer       : wr2SCAN, Native XTB                           
  Gianluca Regni         : ADLD/ADEX                                     
  Tobias Risthaus        : pre 6.0 range-separated hybrid DFT and stability analysis
  Lukas Wittmann         : regularized MP2, r2SCAN double-hybrids, wr2SCAN        
                                                                         
We gratefully acknowledge several colleagues who have allowed us to      
interface, adapt or use parts of their codes:                            
  Ed Valeev, F. Pavosevic, A. Kumar             : LibInt (2-el integral package), F12 methods 
  Garnet Chan, S. Sharma, J. Yang, R. Olivares  : DMRG                   
  Ulf Ekstrom                                   : XCFun DFT Library      
  Mihaly Kallay                                 : mrcc  (arbitrary order and MRCC methods)
  Frank Weinhold                                : gennbo (NPA and NBO analysis)           
  Simon Mueller                                 : openCOSMO-RS                            
  Christopher J. Cramer and Donald G. Truhlar   : smd solvation model                     
  S Lehtola, MJT Oliveira, MAL Marques          : LibXC Library                           
  Liviu Ungur et al                             : ANISO software                          


 Your calculation uses the libint2 library for the computation of 2-el integrals
 For citations please refer to: http://libint.valeyev.net

 Your ORCA version has been built with support for libXC version: 7.0.0
 For citations please refer to: https://libxc.gitlab.io

 This ORCA versions uses:
   CBLAS   interface :  Fast vector & matrix operations
   LAPACKE interface :  Fast linear algebra routines
   SCALAPACK package :  Parallel linear algebra routines
   Shared memory     :  Shared parallel matrices
   BLAS/LAPACK       :  OpenBLAS 0.3.29  USE64BITINT DYNAMIC_ARCH NO_AFFINITY Cooperlake SINGLE_THREADED
        Core in use  :  Cooperlake
   Copyright (c) 2011-2014, The OpenBLAS Project


  ***********************************
  * Starting time: Fri Jul 18 12:42:41 2025
  * Host name:     abcsim-001
  * Process ID:    950515
  * Working dir.:  /home/vhpaschoal/orca_test/Uracil/Agua/Uracil_1_3
  ***********************************

Warning: RI is on but no J-basis has been assigned. Assigning Def2/J (nothing to worry about!)
================================================================================

----- Orbital basis set information -----
Your calculation utilizes the basis: def2-SVP
   F. Weigend and R. Ahlrichs, Phys. Chem. Chem. Phys. 7, 3297 (2005).

----- AuxJ basis set information -----
Your calculation utilizes the auxiliary basis: def2/J
   H-Rn: F. Weigend, Phys. Chem. Chem. Phys. 8, 1057 (2006).
   Fr-Lr: K. Eichkorn, F. Weigend, O. Treutler, R. Ahlrichs; Theor. Chem. Acc. 97, 119 (1997).

================================================================================
                                        WARNINGS
                       Please study these warnings very carefully!
================================================================================

WARNING: Old DensityContainer found on disk!
         Will remove this file - 
         If you want to keep old densities, please start your calculation with a different basename. 


WARNING: Geometry Optimization
  ===> : Switching off AutoStart
         For restart on a previous wavefunction, please use MOREAD

================================================================================
                                       INPUT FILE
================================================================================
NAME = Uracil_1.inp
|  1> !B3LYP def2-SVP OPT FREQ CPCM(water) pal16
|  2> * xyz 1 1
|  3>    C        1.39943        0.51664       -0.05843
|  4>    C        1.16131       -0.78457        0.16422
|  5>    N       -0.10300       -1.27620        0.36247
|  6>    C       -1.16293       -0.43280        0.32977
|  7>    N       -1.00304        0.89353        0.10956
|  8>    C        0.23600        1.45365       -0.09250
|  9>    O       -2.43331       -0.86996        0.51881
| 10>    O        0.40342        2.65219       -0.29244
| 11>    H        1.95781       -1.52043        0.19988
| 12>    H       -0.23682       -2.26702        0.50621
| 13>    H        2.38347        0.93296       -0.21707
| 14>    H       -1.81105        1.49705        0.09205
| 15>    H       -2.45285       -1.82287        0.69010
| 16> *
| 17> 
| 18> 
| 19>                          ****END OF INPUT****
================================================================================

                       *****************************
                       * Geometry Optimization Run *
                       *****************************

Geometry optimization settings:
Update method            Update   .... BFGS
Choice of coordinates    CoordSys .... (2022) Redundant Internals
Initial Hessian          InHess   .... Almloef's Model
Max. no of cycles        MaxIter  .... 50

Convergence Tolerances:
Energy Change            TolE     ....  5.0000e-06 Eh
Max. Gradient            TolMAXG  ....  3.0000e-04 Eh/bohr
RMS Gradient             TolRMSG  ....  1.0000e-04 Eh/bohr
Max. Displacement        TolMAXD  ....  4.0000e-03 bohr
RMS Displacement         TolRMSD  ....  2.0000e-03 bohr
Strict Convergence                .... False

------------------------------------------------------------------------------
                        ORCA OPTIMIZATION COORDINATE SETUP
------------------------------------------------------------------------------

The optimization will be done in redundant internal coordinates (2022)
Making redundant internal coordinates   ...  (2022 redundants) done
Evaluating the initial hessian          ...  (Almloef) done
Evaluating the coordinates              ...  done
Calculating the B-matrix                .... done
Calculating the G-matrix                .... done
The number of degrees of freedom        ....   58

    -----------------------------------------------------------------
                    Redundant Internal Coordinates


    -----------------------------------------------------------------
         Definition                    Initial Value    Approx d2E/dq
    -----------------------------------------------------------------
      1. B(C   1,C   0)                  1.3414         0.746855   
      2. B(N   2,C   1)                  1.3709         0.600179   
      3. B(C   3,N   2)                  1.3549         0.636535   
      4. B(N   4,C   3)                  1.3540         0.638814   
      5. B(C   5,N   4)                  1.3747         0.591965   
      6. B(C   5,C   0)                  1.4942         0.426039   
      7. B(O   6,C   3)                  1.3567         0.632352   
      8. B(O   7,C   5)                  1.2266         1.019996   
      9. B(H   8,C   1)                  1.0850         0.366807   
     10. B(H   9,N   2)                  1.0101         0.432556   
     11. B(H  10,C   0)                  1.0802         0.373306   
     12. B(H  11,N   4)                  1.0087         0.434821   
     13. B(H  12,O   6)                  0.9684         0.504193   
     14. A(C   1,C   0,H  10)          124.0519         0.366519   
     15. A(C   5,C   0,H  10)          117.6630         0.333407   
     16. A(C   1,C   0,C   5)          118.2849         0.419613   
     17. A(N   2,C   1,H   8)          115.4071         0.349907   
     18. A(C   0,C   1,H   8)          122.2107         0.365418   
     19. A(C   0,C   1,N   2)          122.3822         0.443338   
     20. A(C   1,N   2,H   9)          119.6381         0.356671   
     21. A(C   1,N   2,C   3)          119.6512         0.427937   
     22. A(C   3,N   2,H   9)          120.6894         0.360258   
     23. A(N   2,C   3,O   6)          121.9079         0.431966   
     24. A(N   2,C   3,N   4)          121.4201         0.432757   
     25. A(N   4,C   3,O   6)          116.6717         0.432244   
     26. A(C   3,N   4,C   5)          121.9703         0.427155   
     27. A(C   5,N   4,H  11)          118.4031         0.356153   
     28. A(C   3,N   4,H  11)          119.6266         0.360799   
     29. A(C   0,C   5,N   4)          116.2906         0.400089   
     30. A(N   4,C   5,O   7)          123.0328         0.464935   
     31. A(C   0,C   5,O   7)          120.6765         0.440860   
     32. A(C   3,O   6,H  12)          111.1376         0.369413   
     33. D(H   8,C   1,C   0,C   5)    179.8662         0.039747   
     34. D(H   8,C   1,C   0,H  10)     -0.0372         0.039747   
     35. D(N   2,C   1,C   0,H  10)    179.9480         0.039747   
     36. D(N   2,C   1,C   0,C   5)     -0.1486         0.039747   
     37. D(H   9,N   2,C   1,C   0)    178.6397         0.029027   
     38. D(C   3,N   2,C   1,C   0)      0.3061         0.029027   
     39. D(C   3,N   2,C   1,H   8)   -179.7078         0.029027   
     40. D(H   9,N   2,C   1,H   8)     -1.3742         0.029027   
     41. D(O   6,C   3,N   2,H   9)      1.6276         0.032949   
     42. D(O   6,C   3,N   2,C   1)    179.9433         0.032949   
     43. D(N   4,C   3,N   2,H   9)   -178.5657         0.032949   
     44. D(N   4,C   3,N   2,C   1)     -0.2500         0.032949   
     45. D(H  11,N   4,C   3,N   2)   -179.9157         0.033205   
     46. D(C   5,N   4,C   3,O   6)    179.8559         0.033205   
     47. D(C   5,N   4,C   3,N   2)      0.0396         0.033205   
     48. D(H  11,N   4,C   3,O   6)     -0.0993         0.033205   
     49. D(O   7,C   5,N   4,H  11)      0.0209         0.028183   
     50. D(C   0,C   5,N   4,H  11)   -179.9317         0.028183   
     51. D(C   0,C   5,N   4,C   3)      0.1126         0.028183   
     52. D(O   7,C   5,C   0,H  10)     -0.1028         0.012409   
     53. D(O   7,C   5,C   0,C   1)    179.9876         0.012409   
     54. D(O   7,C   5,N   4,C   3)   -179.9348         0.028183   
     55. D(N   4,C   5,C   0,H  10)    179.8510         0.012409   
     56. D(N   4,C   5,C   0,C   1)     -0.0586         0.012409   
     57. D(H  12,O   6,C   3,N   4)   -178.6145         0.029424   
     58. D(H  12,O   6,C   3,N   2)      1.2009         0.029424   
    -----------------------------------------------------------------

Number of atoms                         .... 13
Number of degrees of freedom            .... 58


         *************************************************************
         *                GEOMETRY OPTIMIZATION CYCLE   1            *
         *************************************************************
---------------------------------
CARTESIAN COORDINATES (ANGSTROEM)
---------------------------------
  C      1.399430    0.516640   -0.058430
  C      1.161310   -0.784570    0.164220
  N     -0.103000   -1.276200    0.362470
  C     -1.162930   -0.432800    0.329770
  N     -1.003040    0.893530    0.109560
  C      0.236000    1.453650   -0.092500
  O     -2.433310   -0.869960    0.518810
  O      0.403420    2.652190   -0.292440
  H      1.957810   -1.520430    0.199880
  H     -0.236820   -2.267020    0.506210
  H      2.383470    0.932960   -0.217070
  H     -1.811050    1.497050    0.092050
  H     -2.452850   -1.822870    0.690100

----------------------------
CARTESIAN COORDINATES (A.U.)
----------------------------
  NO LB      ZA    FRAG     MASS         X           Y           Z
   0 C     6.0000    0    12.011    2.644539    0.976308   -0.110417
   1 C     6.0000    0    12.011    2.194558   -1.482622    0.310331
   2 N     7.0000    0    14.007   -0.194642   -2.411668    0.684969
   3 C     6.0000    0    12.011   -2.197619   -0.817873    0.623175
   4 N     7.0000    0    14.007   -1.895471    1.688527    0.207038
   5 C     6.0000    0    12.011    0.445975    2.747000   -0.174800
   6 O     8.0000    0    15.999   -4.598289   -1.643986    0.980409
   7 O     8.0000    0    15.999    0.762353    5.011913   -0.552632
   8 H     1.0000    0     1.008    3.699725   -2.873196    0.377718
   9 H     1.0000    0     1.008   -0.447525   -4.284047    0.956598
  10 H     1.0000    0     1.008    4.504106    1.763039   -0.410203
  11 H     1.0000    0     1.008   -3.422389    2.829015    0.173949
  12 H     1.0000    0     1.008   -4.635215   -3.444725    1.304100

--------------------------------
INTERNAL COORDINATES (ANGSTROEM)
--------------------------------
 C      0   0   0     0.000000000000     0.00000000     0.00000000
 C      1   0   0     1.341425220055     0.00000000     0.00000000
 N      2   1   0     1.370942338503   122.38219185     0.00000000
 C      3   2   1     1.354933376554   119.65116795     0.30609763
 N      4   3   2     1.353960311494   121.42011442   359.75003504
 C      5   4   3     1.374693703921   121.97028315     0.03955506
 O      4   3   2     1.356727803061   121.90793502   179.94330834
 O      6   5   4     1.226582076993   123.03280960   180.06515272
 H      2   1   3     1.084976416887   122.21067896   180.01479813
 H      3   2   1     1.010095664974   119.63812308   178.63966434
 H      1   2   3     1.080196145892   124.05194294   179.94801311
 H      5   4   3     1.008673956539   119.62659937   180.08434517
 H      7   4   3     0.968379855119   111.13759528     1.20090425

---------------------------
INTERNAL COORDINATES (A.U.)
---------------------------
 C      0   0   0     0.000000000000     0.00000000     0.00000000
 C      1   0   0     2.534926295039     0.00000000     0.00000000
 N      2   1   0     2.590705565168   122.38219185     0.00000000
 C      3   2   1     2.560453011396   119.65116795     0.30609763
 N      4   3   2     2.558614184922   121.42011442   359.75003504
 C      5   4   3     2.597794618436   121.97028315     0.03955506
 O      4   3   2     2.563843986063   121.90793502   179.94330834
 O      6   5   4     2.317904206293   123.03280960   180.06515272
 H      2   1   3     2.050308289679   122.21067896   180.01479813
 H      3   2   1     1.908804175863   119.63812308   178.63966434
 H      1   2   3     2.041274886653   124.05194294   179.94801311
 H      5   4   3     1.906117536277   119.62659937   180.08434517
 H      7   4   3     1.829972719781   111.13759528     1.20090425

---------------------
BASIS SET INFORMATION
---------------------
There are 4 groups of distinct atoms

 Group   1 Type C   : 7s4p1d contracted to 3s2p1d pattern {511/31/1}
 Group   2 Type N   : 7s4p1d contracted to 3s2p1d pattern {511/31/1}
 Group   3 Type O   : 7s4p1d contracted to 3s2p1d pattern {511/31/1}
 Group   4 Type H   : 4s1p contracted to 2s1p pattern {31/1}

Atom   0C    basis set group =>   1
Atom   1C    basis set group =>   1
Atom   2N    basis set group =>   2
Atom   3C    basis set group =>   1
Atom   4N    basis set group =>   2
Atom   5C    basis set group =>   1
Atom   6O    basis set group =>   3
Atom   7O    basis set group =>   3
Atom   8H    basis set group =>   4
Atom   9H    basis set group =>   4
Atom  10H    basis set group =>   4
Atom  11H    basis set group =>   4
Atom  12H    basis set group =>   4
---------------------------------
AUXILIARY/J BASIS SET INFORMATION
---------------------------------
There are 4 groups of distinct atoms

 Group   1 Type C   : 12s5p4d2f1g contracted to 6s4p3d1f1g pattern {711111/2111/211/2/1}
 Group   2 Type N   : 12s5p4d2f1g contracted to 6s4p3d1f1g pattern {711111/2111/211/2/1}
 Group   3 Type O   : 12s5p4d2f1g contracted to 6s4p3d1f1g pattern {711111/2111/211/2/1}
 Group   4 Type H   : 5s2p1d contracted to 3s1p1d pattern {311/2/1}

Atom   0C    basis set group =>   1
Atom   1C    basis set group =>   1
Atom   2N    basis set group =>   2
Atom   3C    basis set group =>   1
Atom   4N    basis set group =>   2
Atom   5C    basis set group =>   1
Atom   6O    basis set group =>   3
Atom   7O    basis set group =>   3
Atom   8H    basis set group =>   4
Atom   9H    basis set group =>   4
Atom  10H    basis set group =>   4
Atom  11H    basis set group =>   4
Atom  12H    basis set group =>   4


           ************************************************************
           *        Program running with 16 parallel MPI-processes    *
           *              working on a common directory               *
           ************************************************************
------------------------------------------------------------------------------
                             ORCA STARTUP CALCULATIONS
                           -- RI-GTO INTEGRALS CHOSEN --
------------------------------------------------------------------------------
------------------------------------------------------------------------------
                   ___                                                        
                  /   \      - P O W E R E D   B Y -                         
                 /     \                                                     
                 |  |  |   _    _      __       _____    __    __             
                 |  |  |  | |  | |    /  \     |  _  \  |  |  /  |          
                  \  \/   | |  | |   /    \    | | | |  |  | /  /          
                 / \  \   | |__| |  /  /\  \   | |_| |  |  |/  /          
                |  |  |   |  __  | /  /__\  \  |    /   |      \           
                |  |  |   | |  | | |   __   |  |    \   |  |\   \          
                \     /   | |  | | |  |  |  |  | |\  \  |  | \   \       
                 \___/    |_|  |_| |__|  |__|  |_| \__\ |__|  \__/        
                                                                              
                      - O R C A' S   B I G   F R I E N D -                    
                                      &                                       
                       - I N T E G R A L  F E E D E R -                       
                                                                              
 v1 FN, 2020, v2 2021, v3 2022-2024                                           
------------------------------------------------------------------------------


----------------------
SHARK INTEGRAL PACKAGE
----------------------

Number of atoms                             ...     13
Number of basis functions                   ...    137
Number of shells                            ...     63
Maximum angular momentum                    ...      2
Integral batch strategy                     ... SHARK/LIBINT Hybrid
RI-J (if used) integral strategy            ... SPLIT-RIJ (Revised 2003 algorithm where possible)
Printlevel                                  ...      1
Contraction scheme used                     ... SEGMENTED contraction
Prescreening option                         ... SCHWARTZ
   Thresh                                   ... 2.500e-11
   Tcut                                     ... 2.500e-12
   Tpresel                                  ... 2.500e-12 
Coulomb Range Separation                    ... NOT USED
Exchange Range Separation                   ... NOT USED
Multipole approximations                    ... NOT USED
Finite Nucleus Model                        ... NOT USED
CABS basis                                  ... NOT available
Auxiliary Coulomb fitting basis             ... AVAILABLE
   # of basis functions in Aux-J            ...    447
   # of shells in Aux-J                     ...    145
   Maximum angular momentum in Aux-J        ...      4
Auxiliary J/K fitting basis                 ... NOT available
Auxiliary Correlation fitting basis         ... NOT available
Auxiliary 'external' fitting basis          ... NOT available

Checking pre-screening integrals            ... done (  0.0 sec) Dimension = 63
   => SHARK Basis and OBASIS are compatible. Storing Pre-screening
Shell pair information
Shell pair cut-off parameter TPreSel        ...   2.5e-12
Total number of shell pairs                 ...      2016
Shell pairs after pre-screening             ...      1907
Total number of primitive shell pairs       ...      7500
Primitive shell pairs kept                  ...      5300
          la=0 lb=0:    556 shell pairs
          la=1 lb=0:    679 shell pairs
          la=1 lb=1:    223 shell pairs
          la=2 lb=0:    253 shell pairs
          la=2 lb=1:    161 shell pairs
          la=2 lb=2:     35 shell pairs

Checking whether 4 symmetric matrices of dimension 137 fit in memory
:Max Core in MB      =   4096.00
 MB in use           =      5.81
 MB left             =   4090.19
 MB needed           =      0.29
 Data fit in memory  = YES
Calculating RI/J V-Matrix + Cholesky decomp.... done (  0.0 sec)
Calculating Nuclear repulsion               ... done (  0.0 sec) ENN=    367.091893719637 Eh

Diagonalization of the overlap matrix:
Smallest eigenvalue                        ... 1.316e-03
Time for diagonalization                   ...    0.001 sec
Threshold for overlap eigenvalues          ... 1.000e-07
Number of eigenvalues below threshold      ... 0
Time for construction of square roots      ...    0.000 sec
Total time needed                          ...    0.002 sec

-------------------
DFT GRID GENERATION
-------------------

General Integration Accuracy     IntAcc      ... 4.388
Radial Grid Type                 RadialGrid  ... OptM3 with GC (2021)
Angular Grid (max. ang.)         AngularGrid ... 4 (Lebedev-302)
Angular grid pruning method      GridPruning ... 4 (adaptive)
Weight generation scheme         WeightScheme... mBecke (2022)
Basis function cutoff            BFCut       ... 1.0000e-11
Integration weight cutoff        WCut        ... 1.0000e-14
Partially contracted basis set               ... off
Rotationally invariant grid construction     ... off
Angular grids for H and He will be reduced by one unit

Total number of grid points                  ...    64473
Total number of batches                      ...     1014
Average number of points per batch           ...       63
Average number of grid points per atom       ...     4959

--------------------
COSX GRID GENERATION
--------------------

GRIDX 1
-------
General Integration Accuracy     IntAcc      ... 3.816
Radial Grid Type                 RadialGrid  ... OptM3 with GC (2021)
Angular Grid (max. ang.)         AngularGrid ... 1 (Lebedev-50)
Angular grid pruning method      GridPruning ... 4 (adaptive)
Weight generation scheme         WeightScheme... mBecke (2022)
Basis function cutoff            BFCut       ... 1.0000e-11
Integration weight cutoff        WCut        ... 1.0000e-14
Partially contracted basis set               ... on
Rotationally invariant grid construction     ... off
Angular grids for H and He will be reduced by one unit

Total number of grid points                  ...     8229
Total number of batches                      ...       72
Average number of points per batch           ...      114
Average number of grid points per atom       ...      633
UseSFitting                                  ... on

GRIDX 2
-------
General Integration Accuracy     IntAcc      ... 4.020
Radial Grid Type                 RadialGrid  ... OptM3 with GC (2021)
Angular Grid (max. ang.)         AngularGrid ... 2 (Lebedev-110)
Angular grid pruning method      GridPruning ... 4 (adaptive)
Weight generation scheme         WeightScheme... mBecke (2022)
Basis function cutoff            BFCut       ... 1.0000e-11
Integration weight cutoff        WCut        ... 1.0000e-14
Partially contracted basis set               ... on
Rotationally invariant grid construction     ... off
Angular grids for H and He will be reduced by one unit

Total number of grid points                  ...    18379
Total number of batches                      ...      152
Average number of points per batch           ...      120
Average number of grid points per atom       ...     1414
UseSFitting                                  ... on

GRIDX 3
-------
General Integration Accuracy     IntAcc      ... 4.338
Radial Grid Type                 RadialGrid  ... OptM3 with GC (2021)
Angular Grid (max. ang.)         AngularGrid ... 3 (Lebedev-194)
Angular grid pruning method      GridPruning ... 4 (adaptive)
Weight generation scheme         WeightScheme... mBecke (2022)
Basis function cutoff            BFCut       ... 1.0000e-11
Integration weight cutoff        WCut        ... 1.0000e-14
Partially contracted basis set               ... on
Rotationally invariant grid construction     ... off
Angular grids for H and He will be reduced by one unit

Total number of grid points                  ...    40534
Total number of batches                      ...      324
Average number of points per batch           ...      125
Average number of grid points per atom       ...     3118
UseSFitting                                  ... on
Grids setup in   0.3 sec
Initializing property integral containers    ... done (  0.0 sec)

SHARK setup successfully completed in   0.4 seconds

Maximum memory used throughout the entire STARTUP-calculation: 17.1 MB


           ************************************************************
           *        Program running with 16 parallel MPI-processes    *
           *              working on a common directory               *
           ************************************************************
-------------------------------------------------------------------------------
                                 ORCA GUESS
                   Start orbitals & Density for SCF / CASSCF
-------------------------------------------------------------------------------

------------
SCF SETTINGS
------------
Hamiltonian:
 Density Functional     Method          .... DFT(GTOs)
 Exchange Functional    Exchange        .... B88
   X-Alpha parameter    XAlpha          ....  0.666667
   Becke's b parameter  XBeta           ....  0.004200
 Correlation Functional Correlation     .... LYP
 LDA part of GGA corr.  LDAOpt          .... VWN-5
 Gradients option       PostSCFGGA      .... off
 Hybrid DFT is turned on
   Fraction HF Exchange ScalHFX         ....  0.200000
   Scaling of DF-GGA-X  ScalDFX         ....  0.720000
   Scaling of DF-GGA-C  ScalDFC         ....  0.810000
   Scaling of DF-LDA-C  ScalLDAC        ....  1.000000
   Perturbative correction              ....  0.000000
   NL short-range parameter             ....  4.800000
 RI-approximation to the Coulomb term is turned on
   Number of AuxJ basis functions       .... 447
   RIJ-COSX (HFX calculated with COS-X)).... on


General Settings:
 Integral files         IntName         .... Uracil_1
 Hartree-Fock type      HFTyp           .... RHF
 Total Charge           Charge          ....    1
 Multiplicity           Mult            ....    1
 Number of Electrons    NEL             ....   58
 Basis Dimension        Dim             ....  137
 Nuclear Repulsion      ENuc            ....    367.0918937196 Eh

Convergence Acceleration:
 AO-DIIS                CNVDIIS         .... on
   Start iteration      DIISMaxIt       ....    12
   Startup error        DIISStart       ....  0.200000
   # of expansion vecs  DIISMaxEq       ....     5
   Bias factor          DIISBfac        ....   1.050
   Max. coefficient     DIISMaxC        ....  10.000
 MO-DIIS                CNVKDIIS        .... off
 Trust-Rad. Augm. Hess. CNVTRAH         .... auto
   Auto Start mean grad. ratio tolernc. ....  1.125000
   Auto Start start iteration           ....    50
   Auto Start num. interpolation iter.  ....    10
   Max. Number of Micro iterations      ....    24
   Max. Number of Macro iterations      .... Maxiter - #DIIS iter
   Number of Davidson start vectors     ....     2
   Converg. threshold    (grad. norm)   ....   1.000e-05
   Grad. Scal. Fac. for Micro threshold ....   0.100
   Minimum threshold for Micro iter.    ....   1.000e-02
   NR start threshold (gradient norm)   ....   1.000e-04
   Initial trust radius                 ....   0.400
   Minimum AH scaling param. (alpha)    ....   1.000
   Maximum AH scaling param. (alpha)    .... 1000.000
   Quad. conv. algorithm                .... NR
   White noise on init. David. guess    .... on
   Maximum white noise                  ....   0.010
   Pseudo random numbers                .... off
   Inactive MOs                         .... canonical
   Orbital update algorithm             .... Taylor
   Preconditioner                       .... Diag
   Full preconditioner red. dimension   ....   250
 SOSCF                 CNVSOSCF           .... on
   Start iteration     SOSCFMaxIt         ....   150
   Startup grad/error  SOSCFStart         ....  0.003300
   Hessian update      SOSCFHessUp        .... L-BFGS
   Autom. constraints  SOSCFAutoConstrain .... off
 Level Shifting         CNVShift        .... on
   Level shift para.    LevelShift      ....    0.2500
   Turn off err/grad.   ShiftErr        ....    0.0010
 Zerner damping         CNVZerner       .... off
 Static damping         CNVDamp         .... on
   Fraction old density DampFac         ....    0.7000
   Max. Damping (<1)    DampMax         ....    0.9800
   Min. Damping (>=0)   DampMin         ....    0.0000
   Turn off err/grad.   DampErr         ....    0.1000

SCF Procedure:
 Maximum # iterations   MaxIter         ....   125
 SCF integral mode      SCFMode         .... Direct
   Integral package                     .... SHARK and LIBINT hybrid scheme
 Reset frequency        DirectResetFreq ....    20
 Integral Threshold     Thresh          ....  2.500e-11 Eh
 Primitive CutOff       TCut            ....  2.500e-12 Eh

Convergence Tolerance:
 Convergence Check Mode ConvCheckMode   .... Total+1el-Energy
 Convergence forced     ConvForced      .... 0
 Energy Change          TolE            ....  1.000e-08 Eh
 1-El. energy change                    ....  1.000e-05 Eh
 Orbital Gradient       TolG            ....  1.000e-05
 Orbital Rotation angle TolX            ....  1.000e-05
 DIIS Error             TolErr          ....  5.000e-07

------------------------------
INITIAL GUESS: MODEL POTENTIAL
------------------------------
Loading Hartree-Fock densities                     ... done
Calculating cut-offs                               ... done
Initializing the effective Hamiltonian             ... done
Setting up the integral package (SHARK)            ... done
Starting the Coulomb interaction                   ... done (   0.0 sec)
Making the grid                                    ... done (   0.0 sec)
Mapping shells                                     ... done
Starting the XC term evaluation                    ... done (   0.0 sec)
  promolecular density results
     # of electrons  =     58.996661584
     EX              =    -51.661578209
     EC              =     -2.058037495
     EX+EC           =    -53.719615704
Transforming the Hamiltonian                       ... done (   0.0 sec)
Diagonalizing the Hamiltonian                      ... done (   0.0 sec)
Back transforming the eigenvectors                 ... done (   0.0 sec)
Now organizing SCF variables                       ... done
                      ------------------
                      INITIAL GUESS DONE (   0.1 sec)
                      ------------------
             **** ENERGY FILE WAS UPDATED (Uracil_1.en.tmp) ****
Finished Guess after   0.4 sec
Maximum memory used throughout the entire GUESS-calculation: 8.2 MB


           ************************************************************
           *        Program running with 16 parallel MPI-processes    *
           *              working on a common directory               *
           ************************************************************

-------------------------------------------------------------------------------------------
                                      ORCA LEAN-SCF
                              memory conserving SCF solver
-------------------------------------------------------------------------------------------

--------------------
CPCM SOLVATION MODEL
--------------------
CPCM parameters:
  Epsilon                                         ...      80.1510
  Refrac                                          ...       1.3328
  Rsolv                                           ...       1.3000
  Surface type                                    ... GAUSSIAN VDW
  Discretization scheme                           ... Constant charge density
    Threshold for H atoms                         ...       5.0000 (charges/Ang^2)
    Threshold for non-H atoms                     ...       5.0000 (charges/Ang^2)
  Epsilon function type                           ...         CPCM
Solvent:                                          ... WATER
Radii:
  Scheme                                          ... Element-dependent radii
  Radius for C  used is    3.8550 Bohr (=   2.0400 Ang.)
  Radius for N  used is    3.5149 Bohr (=   1.8600 Ang.)
  Radius for O  used is    3.4469 Bohr (=   1.8240 Ang.)
  Radius for H  used is    2.4944 Bohr (=   1.3200 Ang.)
Calculating surface                               ...        done! (  0.0s)
Cavity surface points                             ...         1255
Cavity Volume                                     ...     857.0657
Cavity Surface-area                               ...     505.4850
Calculating surface distance matrix               ...        done! (  0.0s)
Performing Cholesky decomposition & store         ...        done! (  0.0s)
Overall time for CPCM initialization              ...                 0.0s

----------------------------------------D-I-I-S--------------------------------------------
Iteration    Energy (Eh)           Delta-E    RMSDP     MaxDP     DIISErr   Damp  Time(sec)
-------------------------------------------------------------------------------------------
               ***  Starting incremental Fock matrix formation  ***
    1    -414.5070923059402048     0.00e+00  1.98e-02  1.08e-01  2.81e-01  0.700   0.1
    2    -414.6198480497556602    -1.13e-01  1.22e-02  6.76e-02  1.06e-01  0.700   0.1
                               ***Turning on AO-DIIS***
    3    -414.6570226643482329    -3.72e-02  4.13e-03  2.10e-02  3.23e-02  0.700   0.1
    4    -414.6809733174477515    -2.40e-02  6.97e-03  2.93e-02  1.48e-02  0.000   0.1
    5    -414.7358881203479086    -5.49e-02  1.62e-03  8.71e-03  6.89e-03  0.000   0.1
                              *** Initializing SOSCF ***
---------------------------------------S-O-S-C-F--------------------------------------
Iteration    Energy (Eh)           Delta-E    RMSDP     MaxDP     MaxGrad    Time(sec)
--------------------------------------------------------------------------------------
    6    -414.7362599508122685    -3.72e-04  4.91e-04  2.57e-03  1.84e-03     0.1
               *** Restarting incremental Fock matrix formation ***
    7    -414.7362663919110446    -6.44e-06  3.22e-04  1.42e-03  3.44e-04     0.1
    8    -414.7362700549742840    -3.66e-06  1.23e-04  7.50e-04  1.96e-04     0.1
    9    -414.7362712589950888    -1.20e-06  7.07e-05  3.30e-04  1.23e-04     0.2
   10    -414.7362714628167168    -2.04e-07  3.89e-05  2.43e-04  7.35e-05     0.1
   11    -414.7362716152643998    -1.52e-07  2.64e-05  1.51e-04  3.84e-05     0.1
   12    -414.7362716447800040    -2.95e-08  1.05e-05  5.90e-05  1.85e-05     0.1
   13    -414.7362716554900999    -1.07e-08  5.30e-06  2.97e-05  8.83e-06     0.1
   14    -414.7362716565424989    -1.05e-09  2.33e-06  1.45e-05  5.18e-06     0.1
                 **** Energy Check signals convergence ****

               *****************************************************
               *                     SUCCESS                       *
               *           SCF CONVERGED AFTER  14 CYCLES          *
               *****************************************************

Recomputing exchange energy using gridx3       ... done (    0.150 sec)
Old exchange energy                            :    -10.368275752 Eh
New exchange energy                            :    -10.368317750 Eh
Exchange energy change after final integration :     -0.000041998 Eh
Total energy after final integration           :   -414.736313656 Eh
             **** ENERGY FILE WAS UPDATED (Uracil_1.en.tmp) ****

----------------
TOTAL SCF ENERGY
----------------

Total Energy       :       -414.73631365588574 Eh          -11285.54884 eV

Components:
Nuclear Repulsion  :        367.09189371963737 Eh            9989.07826 eV
Electronic Energy  :       -781.70290726128565 Eh          -21271.21751 eV
One Electron Energy:      -1278.97986284183730 Eh          -34802.81141 eV
Two Electron Energy:        497.27695558055166 Eh           13531.59389 eV
CPCM Dielectric    :         -0.12525811590482 Eh              -3.40845 eV

Virial components:
Potential Energy   :       -825.63890190755524 Eh          -22466.77671 eV
Kinetic Energy     :        410.90258825166956 Eh           11181.22787 eV
Virial Ratio       :          2.00933001035727

DFT components:
N(Alpha)           :       29.000013519281 electrons
N(Beta)            :       29.000013519281 electrons
N(Total)           :       58.000027038562 electrons
E(X)               :      -41.280829375259 Eh       
E(C)               :       -2.387307349140 Eh       
E(XC)              :      -43.668136724399 Eh       

CPCM Solvation Model Properties:
Surface-charge          :         -1.00655438395991
Corrected charge        :         -1.00000000000000
Outlying charge corr.   :          0.00000341629314 Eh               0.00009 eV
Free-energy (cav+disp)  :  This term is not implemented in the current solvation scheme

---------------
SCF CONVERGENCE
---------------

  Last Energy change         ...    1.0524e-09  Tolerance :   1.0000e-08
  Last MAX-Density change    ...    1.4456e-05  Tolerance :   1.0000e-07
  Last RMS-Density change    ...    2.3320e-06  Tolerance :   5.0000e-09
  Last DIIS Error            ...    1.8360e-03  Tolerance :   5.0000e-07
  Last Orbital Gradient      ...    5.1773e-06  Tolerance :   1.0000e-05
  Last Orbital Rotation      ...    5.7166e-06  Tolerance :   1.0000e-05


----------------
ORBITAL ENERGIES
----------------

  NO   OCC          E(Eh)            E(eV) 
   0   2.0000     -19.243483      -523.6418 
   1   2.0000     -19.136475      -520.7300 
   2   2.0000     -14.450444      -393.2166 
   3   2.0000     -14.441489      -392.9729 
   4   2.0000     -10.420113      -283.5457 
   5   2.0000     -10.334499      -281.2160 
   6   2.0000     -10.279519      -279.7199 
   7   2.0000     -10.227058      -278.2924 
   8   2.0000      -1.144189       -31.1350 
   9   2.0000      -1.071145       -29.1473 
  10   2.0000      -1.031899       -28.0794 
  11   2.0000      -0.979426       -26.6515 
  12   2.0000      -0.821316       -22.3491 
  13   2.0000      -0.740259       -20.1435 
  14   2.0000      -0.720715       -19.6117 
  15   2.0000      -0.651104       -17.7174 
  16   2.0000      -0.611773       -16.6472 
  17   2.0000      -0.598987       -16.2993 
  18   2.0000      -0.558226       -15.1901 
  19   2.0000      -0.533454       -14.5160 
  20   2.0000      -0.491243       -13.3674 
  21   2.0000      -0.467904       -12.7323 
  22   2.0000      -0.453737       -12.3468 
  23   2.0000      -0.445009       -12.1093 
  24   2.0000      -0.431468       -11.7409 
  25   2.0000      -0.415684       -11.3113 
  26   2.0000      -0.352060        -9.5800 
  27   2.0000      -0.295400        -8.0383 
  28   2.0000      -0.285900        -7.7797 
  29   0.0000      -0.077675        -2.1136 
  30   0.0000      -0.055696        -1.5156 
  31   0.0000       0.031407         0.8546 
  32   0.0000       0.055947         1.5224 
  33   0.0000       0.078930         2.1478 
  34   0.0000       0.080787         2.1983 
  35   0.0000       0.102563         2.7909 
  36   0.0000       0.129164         3.5147 
  37   0.0000       0.145991         3.9726 
  38   0.0000       0.178746         4.8639 
  39   0.0000       0.205234         5.5847 
*Only the first 10 virtual orbitals were printed.

                    ********************************
                    * MULLIKEN POPULATION ANALYSIS *
                    ********************************

-----------------------
MULLIKEN ATOMIC CHARGES
-----------------------
   0 C :   -0.069041
   1 C :    0.160767
   2 N :   -0.018752
   3 C :    0.301224
   4 N :   -0.009486
   5 C :    0.155941
   6 O :   -0.122626
   7 O :   -0.248941
   8 H :    0.085292
   9 H :    0.228702
  10 H :    0.056209
  11 H :    0.212366
  12 H :    0.268346
Sum of atomic charges:    1.0000000

--------------------------------
MULLIKEN REDUCED ORBITAL CHARGES
--------------------------------
  0 C s       :     3.240397  s :     3.240397
      pz      :     1.011225  p :     2.799102
      px      :     0.918378
      py      :     0.869499
      dz2     :     0.002930  d :     0.029542
      dxz     :     0.002130
      dyz     :     0.005281
      dx2y2   :     0.008671
      dxy     :     0.010529

  1 C s       :     3.075917  s :     3.075917
      pz      :     0.922661  p :     2.711915
      px      :     0.807759
      py      :     0.981495
      dz2     :     0.004612  d :     0.051401
      dxz     :     0.008063
      dyz     :     0.007594
      dx2y2   :     0.014633
      dxy     :     0.016499

  2 N s       :     3.319798  s :     3.319798
      pz      :     1.518211  p :     3.676967
      px      :     1.059200
      py      :     1.099556
      dz2     :     0.002224  d :     0.021987
      dxz     :     0.004543
      dyz     :     0.001739
      dx2y2   :     0.005638
      dxy     :     0.007842

  3 C s       :     2.997690  s :     2.997690
      pz      :     0.837624  p :     2.588151
      px      :     0.793057
      py      :     0.957471
      dz2     :     0.008790  d :     0.112935
      dxz     :     0.021230
      dyz     :     0.018614
      dx2y2   :     0.032641
      dxy     :     0.031660

  4 N s       :     3.329599  s :     3.329599
      pz      :     1.517990  p :     3.660642
      px      :     1.117114
      py      :     1.025538
      dz2     :     0.002287  d :     0.019245
      dxz     :     0.002038
      dyz     :     0.003292
      dx2y2   :     0.006963
      dxy     :     0.004665

  5 C s       :     3.009202  s :     3.009202
      pz      :     0.838260  p :     2.721072
      px      :     0.953203
      py      :     0.929609
      dz2     :     0.007826  d :     0.113785
      dxz     :     0.010138
      dyz     :     0.022615
      dx2y2   :     0.026644
      dxy     :     0.046562

  6 O s       :     3.686229  s :     3.686229
      pz      :     1.734196  p :     4.422790
      px      :     1.375851
      py      :     1.312743
      dz2     :     0.001977  d :     0.013607
      dxz     :     0.002939
      dyz     :     0.000420
      dx2y2   :     0.006313
      dxy     :     0.001958

  7 O s       :     3.724295  s :     3.724295
      pz      :     1.409302  p :     4.507390
      px      :     1.762690
      py      :     1.335397
      dz2     :     0.002100  d :     0.017256
      dxz     :     0.000228
      dyz     :     0.005369
      dx2y2   :     0.005748
      dxy     :     0.003811

  8 H s       :     0.891444  s :     0.891444
      pz      :     0.003819  p :     0.023264
      px      :     0.010181
      py      :     0.009264

  9 H s       :     0.726895  s :     0.726895
      pz      :     0.009338  p :     0.044404
      px      :     0.005852
      py      :     0.029214

 10 H s       :     0.919638  s :     0.919638
      pz      :     0.004736  p :     0.024153
      px      :     0.014261
      py      :     0.005157

 11 H s       :     0.744003  s :     0.744003
      pz      :     0.008279  p :     0.043631
      px      :     0.020817
      py      :     0.014536

 12 H s       :     0.663570  s :     0.663570
      pz      :     0.015711  p :     0.068083
      px      :     0.012119
      py      :     0.040254



                     *******************************
                     * LOEWDIN POPULATION ANALYSIS *
                     *******************************

----------------------
LOEWDIN ATOMIC CHARGES
----------------------
   0 C :   -0.046958
   1 C :    0.095566
   2 N :    0.117853
   3 C :    0.243733
   4 N :    0.105381
   5 C :    0.088628
   6 O :    0.026996
   7 O :   -0.219111
   8 H :    0.068585
   9 H :    0.154094
  10 H :    0.065330
  11 H :    0.144819
  12 H :    0.155084

-------------------------------
LOEWDIN REDUCED ORBITAL CHARGES
-------------------------------
  0 C s       :     2.881508  s :     2.881508
      pz      :     1.001123  p :     3.084356
      px      :     1.038461
      py      :     1.044772
      dz2     :     0.007328  d :     0.081094
      dxz     :     0.004037
      dyz     :     0.010916
      dx2y2   :     0.026136
      dxy     :     0.032677

  1 C s       :     2.847046  s :     2.847046
      pz      :     0.914774  p :     2.933748
      px      :     0.932429
      py      :     1.086545
      dz2     :     0.010207  d :     0.123640
      dxz     :     0.017182
      dyz     :     0.015690
      dx2y2   :     0.037277
      dxy     :     0.043284

  2 N s       :     3.026101  s :     3.026101
      pz      :     1.457744  p :     3.798868
      px      :     1.164087
      py      :     1.177038
      dz2     :     0.004232  d :     0.057177
      dxz     :     0.008975
      dyz     :     0.003016
      dx2y2   :     0.018564
      dxy     :     0.022391

  3 C s       :     2.808307  s :     2.808307
      pz      :     0.853540  p :     2.713686
      px      :     0.904928
      py      :     0.955218
      dz2     :     0.017077  d :     0.234273
      dxz     :     0.039348
      dyz     :     0.036103
      dx2y2   :     0.074039
      dxy     :     0.067706

  4 N s       :     3.040783  s :     3.040783
      pz      :     1.454095  p :     3.800216
      px      :     1.196755
      py      :     1.149365
      dz2     :     0.005086  d :     0.053621
      dxz     :     0.004078
      dyz     :     0.006476
      dx2y2   :     0.020977
      dxy     :     0.017003

  5 C s       :     2.833764  s :     2.833764
      pz      :     0.837952  p :     2.820134
      px      :     0.967421
      py      :     1.014761
      dz2     :     0.017104  d :     0.257474
      dxz     :     0.021333
      dyz     :     0.043244
      dx2y2   :     0.064191
      dxy     :     0.111601

  6 O s       :     3.416432  s :     3.416432
      pz      :     1.700108  p :     4.531002
      px      :     1.437724
      py      :     1.393169
      dz2     :     0.003758  d :     0.025571
      dxz     :     0.003796
      dyz     :     0.000795
      dx2y2   :     0.013347
      dxy     :     0.003874

  7 O s       :     3.551964  s :     3.551964
      pz      :     1.411452  p :     4.637633
      px      :     1.771214
      py      :     1.454966
      dz2     :     0.004100  d :     0.029514
      dxz     :     0.000322
      dyz     :     0.007158
      dx2y2   :     0.011859
      dxy     :     0.006075

  8 H s       :     0.860584  s :     0.860584
      pz      :     0.012338  p :     0.070831
      px      :     0.031292
      py      :     0.027201

  9 H s       :     0.722168  s :     0.722168
      pz      :     0.032256  p :     0.123739
      px      :     0.015354
      py      :     0.076129

 10 H s       :     0.862064  s :     0.862064
      pz      :     0.015659  p :     0.072605
      px      :     0.042125
      py      :     0.014821

 11 H s       :     0.730635  s :     0.730635
      pz      :     0.030396  p :     0.124546
      px      :     0.056347
      py      :     0.037802

 12 H s       :     0.670378  s :     0.670378
      pz      :     0.044247  p :     0.174538
      px      :     0.030963
      py      :     0.099327



                      *****************************
                      * MAYER POPULATION ANALYSIS *
                      *****************************

  NA   - Mulliken gross atomic population
  ZA   - Total nuclear charge
  QA   - Mulliken gross atomic charge
  VA   - Mayer's total valence
  BVA  - Mayer's bonded valence
  FA   - Mayer's free valence

  ATOM       NA         ZA         QA         VA         BVA        FA
  0 C      6.0690     6.0000    -0.0690     3.8441     3.8441    -0.0000
  1 C      5.8392     6.0000     0.1608     3.8862     3.8862     0.0000
  2 N      7.0188     7.0000    -0.0188     3.4548     3.4548    -0.0000
  3 C      5.6988     6.0000     0.3012     4.2341     4.2341    -0.0000
  4 N      7.0095     7.0000    -0.0095     3.3272     3.3272    -0.0000
  5 C      5.8441     6.0000     0.1559     4.3275     4.3275     0.0000
  6 O      8.1226     8.0000    -0.1226     2.3744     2.3744    -0.0000
  7 O      8.2489     8.0000    -0.2489     2.2646     2.2646    -0.0000
  8 H      0.9147     1.0000     0.0853     0.9842     0.9842     0.0000
  9 H      0.7713     1.0000     0.2287     0.9572     0.9572     0.0000
 10 H      0.9438     1.0000     0.0562     1.0057     1.0057    -0.0000
 11 H      0.7876     1.0000     0.2124     0.9859     0.9859    -0.0000
 12 H      0.7317     1.0000     0.2683     0.9609     0.9609    -0.0000

  Mayer bond orders larger than 0.100000
B(  0-C ,  1-C ) :   1.6834 B(  0-C ,  5-C ) :   1.0595 B(  0-C , 10-H ) :   0.9765 
B(  1-C ,  2-N ) :   1.1270 B(  1-C ,  8-H ) :   0.9561 B(  2-N ,  3-C ) :   1.3277 
B(  2-N ,  9-H ) :   0.8819 B(  3-C ,  4-N ) :   1.3127 B(  3-C ,  6-O ) :   1.3771 
B(  4-N ,  5-C ) :   1.0588 B(  4-N , 11-H ) :   0.8707 B(  5-C ,  7-O ) :   2.0935 
B(  6-O , 12-H ) :   0.9092 

-------
TIMINGS
-------

Total SCF time: 0 days 0 hours 0 min 2 sec 

Total time                  ....       2.312 sec
Sum of individual times     ....       2.187 sec  ( 94.6%)

SCF preparation             ....       0.387 sec  ( 16.7%)
Fock matrix formation       ....       1.693 sec  ( 73.2%)
  Startup                   ....       0.002 sec  (  0.1% of F)
  Split-RI-J                ....       0.140 sec  (  8.3% of F)
  Chain of spheres X        ....       1.033 sec  ( 61.0% of F)
  XC integration            ....       0.259 sec  ( 15.3% of F)
    XC Preparation          ....       0.000 sec  (  0.0% of XC)
    Basis function eval.    ....       0.064 sec  ( 24.7% of XC)
    Density eval.           ....       0.032 sec  ( 12.5% of XC)
    XC-Functional eval.     ....       0.011 sec  (  4.3% of XC)
    XC-Potential eval.      ....       0.030 sec  ( 11.5% of XC)
  CPCM terms                ....       0.303 sec  ( 17.9% of F)
Diagonalization             ....       0.000 sec  (  0.0%)
Density matrix formation    ....       0.014 sec  (  0.6%)
Total Energy calculation    ....       0.010 sec  (  0.4%)
Population analysis         ....       0.005 sec  (  0.2%)
Orbital Transformation      ....       0.007 sec  (  0.3%)
Orbital Orthonormalization  ....       0.000 sec  (  0.0%)
DIIS solution               ....       0.036 sec  (  1.5%)
SOSCF solution              ....       0.036 sec  (  1.6%)
Finished LeanSCF after   2.3 sec

Maximum memory used throughout the entire LEANSCF-calculation: 11.3 MB


           ************************************************************
           *        Program running with 16 parallel MPI-processes    *
           *              working on a common directory               *
           ************************************************************

------------------------------------------------------------------------------
                         ORCA PROPERTY INTEGRAL CALCULATIONS
------------------------------------------------------------------------------

GBWName                                   ... Uracil_1.gbw
Number of atoms                           ...     13
Number of basis functions                 ...    137
Max core memory                           ...   4096 MB

Dipole integrals                          ... YES
Quadrupole integrals                      ...  NO
Linear momentum integrals                 ...  NO
Angular momentum integrals                ...  NO
Higher moments length integrals           ...  NO
Higher moments velocity integrals         ...  NO
Kinetic energy integrals                  ...  NO
GIAO right hand sides                     ...  NO
GIAO dipole derivative integrals          ...  NO
SOC integrals                             ...  NO
EPR diamagnetic integrals (GIAO)          ...  NO
EPR gauge integrals                       ...  NO
Field gradient integrals                  ...  NO (   0 nuclei)
Spin-dipole/Fermi contact integrals       ...  NO (   0 nuclei)
Contact density integrals                 ...  NO (   0 nuclei)
Nucleus-orbit integrals                   ...  NO (   0 nuclei)
Geometric perturbations                   ...  NO (  13 nuclei)

Choice of electric origin   ... Center of mass
Position of electric origin ... ( -0.4763,  0.4844,  0.2613) 
Choice of magnetic origin   ... GIAO
Position of magnetic origin ... (  0.0000,  0.0000,  0.0000) 

Calculating integrals                     ... Electric Dipole (Length)     done (  0.0 sec)

Property integrals calculated in   0.0 sec

Maximum memory used throughout the entire PROPINT-calculation: 8.5 MB

-------------------------   --------------------
FINAL SINGLE POINT ENERGY      -414.736313655886
-------------------------   --------------------



           ************************************************************
           *        Program running with 16 parallel MPI-processes    *
           *              working on a common directory               *
           ************************************************************
------------------------------------------------------------------------------
                         ORCA SCF GRADIENT CALCULATION
------------------------------------------------------------------------------

Nuc. rep. gradient        (SHARK) ... done (  0.0 sec)
HCore & Overlap gradient  (SHARK) ... done (  0.0 sec)
Split-RIJ-J gradient      (SHARK) ... done (  0.1 sec)
done (  0.6 sec)
XC gradient                       ... done (  0.1 sec)
CPCM gradient                     ... done (  0.1 sec)

------------------
CARTESIAN GRADIENT
------------------

   1   C   :    0.034229032   -0.008502398   -0.002000725
   2   C   :   -0.022258776    0.003829792    0.001461618
   3   N   :    0.028760892   -0.033477791    0.003079829
   4   C   :    0.039206582    0.022001661   -0.007584078
   5   N   :    0.003609340    0.043357422   -0.006965444
   6   C   :   -0.061074610   -0.028501261    0.010348813
   7   O   :   -0.048911454   -0.026946017    0.009278012
   8   O   :    0.016001235    0.012453586   -0.003469098
   9   H   :   -0.001928593    0.005067007   -0.000616815
  10   H   :    0.003009791    0.009736967   -0.001960454
  11   H   :   -0.005499204   -0.001332898    0.000685199
  12   H   :    0.012592622   -0.006183530   -0.000337590
  13   H   :    0.002263143    0.008497460   -0.001919267

Difference to translation invariance:
           :   -0.0000000001    0.0000000001   -0.0000000000

Difference to rotation invariance:
           :    0.0003710952   -0.0006063454   -0.0019502653

Norm of the Cartesian gradient     ...    0.1283077331
RMS gradient                       ...    0.0205456804
MAX gradient                       ...    0.0610746101

-------
TIMINGS
-------

Total SCF gradient time     ....        0.854 sec

Densities                   ....       0.000 sec  (  0.0%)
One electron gradient       ....       0.007 sec  (  0.8%)
RI-J Coulomb gradient       ....       0.057 sec  (  6.6%)
COSX gradient               ....       0.580 sec  ( 68.0%)
XC gradient                 ....       0.146 sec  ( 17.1%)
CPCM gradient               ....       0.062 sec  (  7.3%)
   A-Matrix (El+Nuc)        ....       0.002 sec  (  0.2%)
   Potential                ....       0.060 sec  (  7.0%)

Maximum memory used throughout the entire SCFGRAD-calculation: 14.4 MB
------------------------------------------------------------------------------
                         ORCA GEOMETRY RELAXATION STEP
------------------------------------------------------------------------------

Reading the OPT-File                    .... done
Getting information on internals        .... done
Copying old internal coords+grads       .... done
Making the new internal coordinates     .... (2022 redundants) done
Validating the new internal coordinates .... (2022 redundants) done
Calculating the B-matrix                .... done
Calculating the G,G- and P matrices     .... done
Transforming gradient to internals      .... done
Projecting the internal gradient        .... done
Number of atoms                         ....  13
Number of internal coordinates          ....  58
Current Energy                          ....  -414.736313656 Eh
Current gradient norm                   ....     0.128307733 Eh/bohr
Maximum allowed component of the step   ....  0.300
Current trust radius                    ....  0.300
Evaluating the initial hessian          ....  (Almloef) done
Projecting the Hessian                  .... done
Forming the augmented Hessian           .... done
Diagonalizing the augmented Hessian     .... done
Last element of RFO vector              ....  0.989042269
Lowest eigenvalues of augmented Hessian:
 -0.012172416  0.019313410  0.022988989  0.027295355  0.029424816
Length of the computed step             ....  0.149268261
The final length of the internal step   ....  0.149268261
Converting the step to Cartesian space:
 Initial RMS(Int)=    0.0195998829
Transforming coordinates:
 Iter   0:  RMS(Cart)=    0.0231407038 RMS(Int)=    1.4284931379
done
Storing new coordinates                 .... done

                                .--------------------.
          ----------------------|Geometry convergence|-------------------------
          Item                value                   Tolerance       Converged
          ---------------------------------------------------------------------
          RMS gradient        0.0109462323            0.0001000000      NO
          MAX gradient        0.0506330656            0.0003000000      NO
          RMS step            0.0195998829            0.0020000000      NO
          MAX step            0.0785587595            0.0040000000      NO
          -------------------------------------------------------------------------
          ........................................................
          Max(Bonds)      0.0416      Max(Angles)    2.75
          Max(Dihed)        0.25      Max(Improp)    0.00
          ---------------------------------------------------------------------

The optimization has not yet converged - more geometry cycles are needed


    ---------------------------------------------------------------------------
                         Redundant Internal Coordinates
                            (Angstroem and degrees)

        Definition                    Value    dE/dq     Step     New-Value
    ----------------------------------------------------------------------------
     1. B(C   1,C   0)                1.3414 -0.007383  0.0057    1.3471   
     2. B(N   2,C   1)                1.3709 -0.016645  0.0142    1.3852   
     3. B(C   3,N   2)                1.3549  0.025510 -0.0216    1.3333   
     4. B(N   4,C   3)                1.3540  0.019184 -0.0163    1.3377   
     5. B(C   5,N   4)                1.3747 -0.028136  0.0247    1.3994   
     6. B(C   5,C   0)                1.4942  0.018174 -0.0208    1.4735   
     7. B(O   6,C   3)                1.3567  0.050633 -0.0416    1.3152   
     8. B(O   7,C   5)                1.2266  0.014921 -0.0076    1.2189   
     9. B(H   8,C   1)                1.0850 -0.004879  0.0068    1.0918   
    10. B(H   9,N   2)                1.0101 -0.010232  0.0122    1.0223   
    11. B(H  10,C   0)                1.0802 -0.005623  0.0077    1.0879   
    12. B(H  11,N   4)                1.0087 -0.013777  0.0163    1.0250   
    13. B(H  12,O   6)                0.9684 -0.008706  0.0089    0.9773   
    14. A(C   1,C   0,H  10)          124.05  0.002784   -0.51    123.54   
    15. A(C   5,C   0,H  10)          117.66  0.000796   -0.23    117.44   
    16. A(C   1,C   0,C   5)          118.28 -0.003580    0.73    119.02   
    17. A(N   2,C   1,H   8)          115.41 -0.000953    0.05    115.45   
    18. A(C   0,C   1,H   8)          122.21 -0.006080    0.82    123.03   
    19. A(C   0,C   1,N   2)          122.38  0.007034   -0.87    121.51   
    20. A(C   1,N   2,H   9)          119.64  0.002145   -0.18    119.46   
    21. A(C   1,N   2,C   3)          119.65 -0.007640    0.88    120.53   
    22. A(C   3,N   2,H   9)          120.69  0.005486   -0.69    120.00   
    23. A(N   2,C   3,O   6)          121.91 -0.007398    1.08    122.98   
    24. A(N   2,C   3,N   4)          121.42  0.004766   -0.86    120.56   
    25. A(N   4,C   3,O   6)          116.67  0.002631   -0.22    116.45   
    26. A(C   3,N   4,C   5)          121.97 -0.012065    1.55    123.52   
    27. A(C   5,N   4,H  11)          118.40  0.003553   -0.40    118.01   
    28. A(C   3,N   4,H  11)          119.63  0.008512   -1.15    118.47   
    29. A(C   0,C   5,N   4)          116.29  0.011485   -1.43    114.86   
    30. A(N   4,C   5,O   7)          123.03  0.010614   -1.32    121.72   
    31. A(C   0,C   5,O   7)          120.68 -0.022099    2.75    123.43   
    32. A(C   3,O   6,H  12)          111.14 -0.003927    0.59    111.73   
    33. D(H   8,C   1,C   0,C   5)    179.87 -0.000050    0.05    179.91   
    34. D(H   8,C   1,C   0,H  10)     -0.04 -0.000015   -0.00     -0.04   
    35. D(N   2,C   1,C   0,H  10)    179.95  0.000014   -0.06    179.88   
    36. D(N   2,C   1,C   0,C   5)     -0.15 -0.000021   -0.01     -0.16   
    37. D(H   9,N   2,C   1,C   0)    178.64 -0.000166    0.24    178.88   
    38. D(C   3,N   2,C   1,C   0)      0.31  0.000081   -0.12      0.18   
    39. D(C   3,N   2,C   1,H   8)   -179.71  0.000107   -0.18   -179.89   
    40. D(H   9,N   2,C   1,H   8)     -1.37 -0.000140    0.19     -1.19   
    41. D(O   6,C   3,N   2,H   9)      1.63  0.000207   -0.25      1.38   
    42. D(O   6,C   3,N   2,C   1)    179.94 -0.000102    0.13    180.08   
    43. D(N   4,C   3,N   2,H   9)   -178.57  0.000188   -0.21   -178.78   
    44. D(N   4,C   3,N   2,C   1)     -0.25 -0.000121    0.17     -0.08   
    45. D(H  11,N   4,C   3,N   2)   -179.92 -0.000025    0.04   -179.88   
    46. D(C   5,N   4,C   3,O   6)    179.86  0.000033   -0.03    179.83   
    47. D(C   5,N   4,C   3,N   2)      0.04  0.000070   -0.07     -0.03   
    48. D(H  11,N   4,C   3,O   6)     -0.10 -0.000062    0.07     -0.03   
    49. D(O   7,C   5,N   4,H  11)      0.02 -0.000015    0.02      0.04   
    50. D(C   0,C   5,N   4,H  11)   -179.93  0.000125   -0.18   -180.11   
    51. D(C   0,C   5,N   4,C   3)      0.11  0.000028   -0.07      0.04   
    52. D(O   7,C   5,C   0,H  10)     -0.10 -0.000002   -0.03     -0.13   
    53. D(O   7,C   5,C   0,C   1)    179.99  0.000028   -0.08    179.91   
    54. D(O   7,C   5,N   4,C   3)   -179.93 -0.000111    0.13   -179.81   
    55. D(N   4,C   5,C   0,H  10)    179.85 -0.000122    0.16    180.01   
    56. D(N   4,C   5,C   0,C   1)     -0.06 -0.000091    0.12      0.06   
    57. D(H  12,O   6,C   3,N   4)   -178.61 -0.000147    0.20   -178.42   
    58. D(H  12,O   6,C   3,N   2)      1.20 -0.000160    0.23      1.43   
    ----------------------------------------------------------------------------

Geometry step timings:
Preparation and reading OPT file:      0.000 s ( 1.873 %)
Internal coordinates            :      0.000 s ( 1.998 %)
B/P matrices and projection     :      0.000 s (28.714 %)
Hessian update/contruction      :      0.000 s (12.110 %)
Making the step                 :      0.000 s (26.467 %)
Converting the step to Cartesian:      0.000 s ( 4.120 %)
Storing new data                :      0.000 s ( 2.122 %)
Checking convergence            :      0.000 s ( 2.122 %)
Final printing                  :      0.000 s (20.474 %)
Total time                      :      0.001 s

Time for energy+gradient        :      5.664 s
Time for complete geometry iter :      6.122 s

         *************************************************************
         *                GEOMETRY OPTIMIZATION CYCLE   2            *
         *************************************************************
---------------------------------
CARTESIAN COORDINATES (ANGSTROEM)
---------------------------------
  C      1.397612    0.524629   -0.059556
  C      1.164354   -0.783413    0.162773
  N     -0.118699   -1.266840    0.359699
  C     -1.165298   -0.441366    0.330185
  N     -0.993421    0.867080    0.111617
  C      0.257960    1.457925   -0.096683
  O     -2.402883   -0.847423    0.512224
  O      0.376918    2.655580   -0.289725
  H      1.958761   -1.531323    0.202172
  H     -0.261405   -2.268056    0.508831
  H      2.390840    0.939925   -0.216362
  H     -1.820095    1.472885    0.097397
  H     -2.446204   -1.807431    0.690057

----------------------------
CARTESIAN COORDINATES (A.U.)
----------------------------
  NO LB      ZA    FRAG     MASS         X           Y           Z
   0 C     6.0000    0    12.011    2.641104    0.991405   -0.112545
   1 C     6.0000    0    12.011    2.200311   -1.480436    0.307597
   2 N     7.0000    0    14.007   -0.224309   -2.393981    0.679733
   3 C     6.0000    0    12.011   -2.202094   -0.834062    0.623959
   4 N     7.0000    0    14.007   -1.877293    1.638543    0.210926
   5 C     6.0000    0    12.011    0.487473    2.755078   -0.182704
   6 O     8.0000    0    15.999   -4.540791   -1.601397    0.967963
   7 O     8.0000    0    15.999    0.712272    5.018320   -0.547502
   8 H     1.0000    0     1.008    3.701522   -2.893781    0.382050
   9 H     1.0000    0     1.008   -0.493985   -4.286005    0.961550
  10 H     1.0000    0     1.008    4.518033    1.776200   -0.408865
  11 H     1.0000    0     1.008   -3.439480    2.783349    0.184054
  12 H     1.0000    0     1.008   -4.622656   -3.415550    1.304019

--------------------------------
INTERNAL COORDINATES (ANGSTROEM)
--------------------------------
 C      0   0   0     0.000000000000     0.00000000     0.00000000
 C      1   0   0     1.347150328734     0.00000000     0.00000000
 N      2   1   0     1.385174581847   121.51459505     0.00000000
 C      3   2   1     1.333284214075   120.52290577     0.18031333
 N      4   3   2     1.337664080300   120.55461317   359.91762274
 C      5   4   3     1.399442330678   123.51775060   359.97438489
 O      4   3   2     1.315156298110   122.98757387   180.07574339
 O      6   5   4     1.218932275080   121.71340115   180.18678298
 H      2   1   3     1.091789223485   123.03244951   180.07599582
 H      3   2   1     1.022271106993   119.46275011   178.88431532
 H      1   2   3     1.087915535556   123.54004042   179.88088184
 H      5   4   3     1.024983709900   118.47431240   180.12158238
 H      7   4   3     0.977301435201   111.72719951     1.42854055

---------------------------
INTERNAL COORDINATES (A.U.)
---------------------------
 C      0   0   0     0.000000000000     0.00000000     0.00000000
 C      1   0   0     2.545745182529     0.00000000     0.00000000
 N      2   1   0     2.617600607360   121.51459505     0.00000000
 C      3   2   1     2.519542023283   120.52290577     0.18031333
 N      4   3   2     2.527818770951   120.55461317   359.91762274
 C      5   4   3     2.644562745198   123.51775060   359.97438489
 O      4   3   2     2.485285226729   122.98757387   180.07574339
 O      6   5   4     2.303448175699   121.71340115   180.18678298
 H      2   1   3     2.063182628353   123.03244951   180.07599582
 H      3   2   1     1.931812426838   119.46275011   178.88431532
 H      1   2   3     2.055862419039   123.54004042   179.88088184
 H      5   4   3     1.936938503442   118.47431240   180.12158238
 H      7   4   3     1.846832062818   111.72719951     1.42854055



           ************************************************************
           *        Program running with 16 parallel MPI-processes    *
           *              working on a common directory               *
           ************************************************************
------------------------------------------------------------------------------
                   ___                                                        
                  /   \      - P O W E R E D   B Y -                         
                 /     \                                                     
                 |  |  |   _    _      __       _____    __    __             
                 |  |  |  | |  | |    /  \     |  _  \  |  |  /  |          
                  \  \/   | |  | |   /    \    | | | |  |  | /  /          
                 / \  \   | |__| |  /  /\  \   | |_| |  |  |/  /          
                |  |  |   |  __  | /  /__\  \  |    /   |      \           
                |  |  |   | |  | | |   __   |  |    \   |  |\   \          
                \     /   | |  | | |  |  |  |  | |\  \  |  | \   \       
                 \___/    |_|  |_| |__|  |__|  |_| \__\ |__|  \__/        
                                                                              
                      - O R C A' S   B I G   F R I E N D -                    
                                      &                                       
                       - I N T E G R A L  F E E D E R -                       
                                                                              
 v1 FN, 2020, v2 2021, v3 2022-2024                                           
[...]
     13       0.137535  -0.120410  -0.166455   0.059848   0.000223  -0.000042
     14      -0.013607   0.025500   0.027192  -0.007152  -0.000012   0.000041
     15       0.149250  -0.004631  -0.041703   0.075500  -0.001720  -0.001522
     16       0.009459   0.044281  -0.048873  -0.733372   0.000853   0.001855
     17      -0.015007  -0.006208   0.011617   0.105621   0.000017  -0.000160
     18      -0.077010  -0.083324  -0.002147  -0.031946  -0.000165   0.000012
     19       0.038012  -0.049583  -0.046724  -0.010533   0.000078   0.000013
     20       0.000413   0.016550   0.008292   0.004907  -0.000001  -0.000007
     21      -0.034111   0.007544   0.007013   0.009071   0.000198   0.000110
     22       0.004114  -0.022074   0.093736   0.442862  -0.000202  -0.000458
     23       0.002552   0.002624  -0.015094  -0.068707   0.000015   0.000063
     24      -0.198775   0.150711  -0.503170   0.041465   0.510634  -0.505013
     25      -0.005812   0.035813  -0.180863  -0.008565  -0.486309   0.486781
     26       0.016857  -0.019023   0.071900  -0.001981   0.027150  -0.027690
     27      -0.253190   0.709963  -0.133240   0.104943  -0.003920   0.003079
     28       0.122389  -0.096967  -0.133314  -0.027313   0.002862  -0.006967
     29       0.002949  -0.056218   0.037264  -0.006625   0.000016   0.000651
     30      -0.253042   0.054512  -0.241255   0.085864  -0.651831  -0.653269
     31       0.176656  -0.037208   0.096419  -0.219610  -0.245626  -0.250054
     32      -0.003914   0.000606   0.007005   0.025939   0.095463   0.096274
     33       0.057069   0.263756   0.136186  -0.264591  -0.000300  -0.000622
     34       0.338454   0.323696   0.017973  -0.238596   0.000094  -0.000094
     35      -0.059962  -0.077224  -0.016037   0.061383   0.000015   0.000080
     36       0.447085  -0.289864  -0.317589  -0.006157   0.000226  -0.000030
     37      -0.030098  -0.015000   0.002490  -0.020526  -0.001389   0.000002
     38      -0.030706   0.028488   0.025790   0.003639   0.000233   0.000001
                 36         37         38    
      0      -0.000396   0.000678   0.000251
      1       0.000026   0.001196   0.000171
      2       0.000029  -0.000226  -0.000028
      3       0.000713   0.001052  -0.000301
      4       0.000492   0.000207  -0.000142
      5      -0.000133  -0.000049   0.000054
      6      -0.002825  -0.008746   0.000868
      7      -0.013736  -0.072915  -0.003558
      8       0.002243   0.011395   0.000372
      9      -0.000531  -0.000333  -0.000311
     10       0.001198   0.001076  -0.001729
     11      -0.000149  -0.000130   0.000262
     12       0.058035  -0.012008   0.000062
     13      -0.044005   0.010314   0.002346
     14       0.000920  -0.000398  -0.000367
     15      -0.000720  -0.000130  -0.000424
     16       0.000666  -0.001107  -0.000581
     17      -0.000014   0.000173   0.000141
     18       0.000339  -0.000007  -0.008080
     19      -0.000388   0.003339  -0.061250
     20       0.000049  -0.000653   0.012218
     21       0.000114  -0.000033   0.000071
     22      -0.000365   0.000647   0.000320
     23       0.000041  -0.000125  -0.000032
     24      -0.000768  -0.004393   0.000708
     25       0.000668   0.003990  -0.000000
     26      -0.000017  -0.000107  -0.000041
     27       0.025742   0.130630   0.006075
     28       0.196376   0.954867   0.049827
     29      -0.031118  -0.151786  -0.007793
     30      -0.001110  -0.001457  -0.000792
     31       0.000594  -0.000150  -0.000248
     32      -0.000008   0.000181   0.000156
     33      -0.785658   0.160303   0.014102
     34       0.580401  -0.116913  -0.011018
     35      -0.010063   0.001747   0.000284
     36      -0.001455  -0.011146   0.103457
     37       0.007889  -0.051523   0.972547
     38      -0.000997   0.012265  -0.191201


-----------
IR SPECTRUM
-----------

 Mode   freq       eps      Int      T**2         TX        TY        TZ
       cm**-1   L/(mol*cm) km/mol    a.u.
----------------------------------------------------------------------------
  6:    163.65   0.000015    0.08  0.000029  (-0.000224  0.000089  0.005374)
  7:    199.48   0.000308    1.56  0.000482  (-0.001772 -0.001413 -0.021838)
  8:    370.49   0.001976    9.99  0.001665  ( 0.009704 -0.033046  0.021872)
  9:    385.74   0.032528  164.38  0.026315  ( 0.014797  0.033404  0.158051)
 10:    427.78   0.001165    5.89  0.000850  (-0.002456 -0.006355 -0.028350)
 11:    536.47   0.008432   42.61  0.004905  ( 0.052639  0.045710 -0.006675)
 12:    544.29   0.003701   18.70  0.002122  ( 0.044366 -0.012392  0.000166)
 13:    570.15   0.000038    0.19  0.000021  ( 0.001269 -0.002027 -0.003849)
 14:    631.79   0.031427  158.82  0.015523  ( 0.012526  0.017438  0.122728)
 15:    696.44   0.025087  126.78  0.011241  (-0.011104 -0.015880 -0.104239)
 16:    719.95   0.000034    0.17  0.000015  ( 0.001381 -0.000343 -0.003572)
 17:    779.34   0.002507   12.67  0.001004  ( 0.021508  0.023193 -0.001771)
 18:    782.63   0.013297   67.20  0.005302  ( 0.004554  0.009091  0.072101)
 19:    840.69   0.013344   67.44  0.004953  (-0.006050 -0.010937 -0.069261)
 20:    966.51   0.002742   13.86  0.000885  (-0.019063  0.022803 -0.001358)
 21:    996.26   0.000008    0.04  0.000003  ( 0.000016  0.000197  0.001619)
 22:   1040.43   0.006712   33.92  0.002013  (-0.023004 -0.037724  0.007806)
 23:   1090.22   0.003016   15.24  0.000863  (-0.029191  0.001905  0.002758)
 24:   1186.04   0.070540  356.48  0.018560  (-0.120330 -0.060102  0.021645)
 25:   1220.03   0.000098    0.49  0.000025  ( 0.001377  0.004719 -0.000922)
 26:   1236.68   0.015888   80.29  0.004009  (-0.027151 -0.056242  0.010431)
 27:   1381.54   0.001269    6.41  0.000287  ( 0.016011  0.004958 -0.002366)
 28:   1409.14   0.007356   37.18  0.001629  ( 0.036760  0.015607 -0.005851)
 29:   1485.84   0.005894   29.79  0.001238  (-0.006764 -0.033922  0.006435)
 30:   1579.85   0.076814  388.19  0.015173  ( 0.122117  0.009294 -0.013187)
 31:   1698.09   0.152933  772.86  0.028105  ( 0.143057  0.083071 -0.027185)
 32:   1715.11   0.052641  266.03  0.009578  (-0.015015  0.095786 -0.013330)
 33:   1815.45   0.175163  885.20  0.030109  ( 0.009030 -0.171425  0.025324)
 34:   3240.73   0.002350   11.87  0.000226  (-0.006203 -0.013450  0.002621)
 35:   3251.34   0.003000   15.16  0.000288  (-0.016212  0.004959  0.000732)
 36:   3529.97   0.069525  351.35  0.006146  (-0.051550  0.058942 -0.003848)
 37:   3544.09   0.052326  264.43  0.004607  ( 0.007477  0.066700 -0.010128)
 38:   3699.59   0.108260  547.10  0.009132  ( 0.044140  0.082471 -0.019543)

* The epsilon (eps) is given for a Dirac delta lineshape.
** The dipole moment derivative (T) already includes vibrational overlap.

The first frequency considered to be a vibration is 6
The total number of vibrations considered is 33


--------------------------
THERMOCHEMISTRY AT 298.15K
--------------------------

Temperature         ...   298.15 K
Pressure            ...     1.00 atm
Total Mass          ...   113.10 AMU
Quasi RRHO          ...     True
Cut-Off Frequency   ...     1.00 cm^-1

Throughout the following assumptions are being made:
  (1) The electronic state is orbitally nondegenerate
  (2) There are no thermally accessible electronically excited states
  (3) Hindered rotations indicated by low frequency modes are not
      treated as such but are treated as vibrations and this may
      cause some error
  (4) All equations used are the standard statistical mechanics
      equations for an ideal gas
  (5) All vibrations are strictly harmonic

freq.     163.65  E(vib)   ...       0.39 
freq.     199.48  E(vib)   ...       0.35 
freq.     370.49  E(vib)   ...       0.21 
freq.     385.74  E(vib)   ...       0.20 
freq.     427.78  E(vib)   ...       0.18 
freq.     536.47  E(vib)   ...       0.12 
freq.     544.29  E(vib)   ...       0.12 
freq.     570.15  E(vib)   ...       0.11 
freq.     631.79  E(vib)   ...       0.09 
freq.     696.44  E(vib)   ...       0.07 
freq.     719.95  E(vib)   ...       0.07 
freq.     779.34  E(vib)   ...       0.05 
freq.     782.63  E(vib)   ...       0.05 
freq.     840.69  E(vib)   ...       0.04 
freq.     966.51  E(vib)   ...       0.03 
freq.     996.26  E(vib)   ...       0.02 
freq.    1040.43  E(vib)   ...       0.02 
freq.    1090.22  E(vib)   ...       0.02 
freq.    1186.04  E(vib)   ...       0.01 
freq.    1220.03  E(vib)   ...       0.01 
freq.    1236.68  E(vib)   ...       0.01 
freq.    1381.54  E(vib)   ...       0.01 
freq.    1409.14  E(vib)   ...       0.00 
freq.    1485.84  E(vib)   ...       0.00 
freq.    1579.85  E(vib)   ...       0.00 
freq.    1698.09  E(vib)   ...       0.00 
freq.    1715.11  E(vib)   ...       0.00 
freq.    1815.45  E(vib)   ...       0.00 
freq.    3240.73  E(vib)   ...       0.00 
freq.    3251.34  E(vib)   ...       0.00 
freq.    3529.97  E(vib)   ...       0.00 
freq.    3544.09  E(vib)   ...       0.00 
freq.    3699.59  E(vib)   ...       0.00 

------------
INNER ENERGY
------------

The inner energy is: U= E(el) + E(ZPE) + E(vib) + E(rot) + E(trans)
    E(el)   - is the total energy from the electronic structure calculation
              = E(kin-el) + E(nuc-el) + E(el-el) + E(nuc-nuc)
    E(ZPE)  - the the zero temperature vibrational energy from the frequency calculation
    E(vib)  - the the finite temperature correction to E(ZPE) due to population
              of excited vibrational states
    E(rot)  - is the rotational thermal energy
    E(trans)- is the translational thermal energy

Summary of contributions to the inner energy U:
Electronic energy                ...   -414.74649509 Eh
Zero point energy                ...      0.09963749 Eh      62.52 kcal/mol
Thermal vibrational correction   ...      0.00350824 Eh       2.20 kcal/mol
Thermal rotational correction    ...      0.00141627 Eh       0.89 kcal/mol
Thermal translational correction ...      0.00141627 Eh       0.89 kcal/mol
-----------------------------------------------------------------------
Total thermal energy                   -414.64051682 Eh


Summary of corrections to the electronic energy:
(perhaps to be used in another calculation)
Total thermal correction                  0.00634078 Eh       3.98 kcal/mol
Non-thermal (ZPE) correction              0.09963749 Eh      62.52 kcal/mol
-----------------------------------------------------------------------
Total correction                          0.10597827 Eh      66.50 kcal/mol


--------
ENTHALPY
--------

The enthalpy is H = U + kB*T
                kB is Boltzmann's constant
Total thermal energy              ...   -414.64051682 Eh 
Thermal Enthalpy correction       ...      0.00094421 Eh       0.59 kcal/mol
-----------------------------------------------------------------------
Total Enthalpy                    ...   -414.63957261 Eh


Note: Only C1 symmetry has been detected, increase convergence thresholds 
      if your molecule has a higher symmetry. Symmetry factor of 1.0 is   
      used for the rotational entropy correction. 
 

Note: Rotational entropy computed according to Herzberg 
Infrared and Raman Spectra, Chapter V,1, Van Nostrand Reinhold, 1945 
Point Group:  C1, Symmetry Number:   1  
Rotational constants in cm-1:     0.126737     0.065878     0.043347 

Vibrational entropy computed according to the QRRHO of S. Grimme
Chem.Eur.J. 2012 18 9955 using a reference frequency of 100.0 cm-1


-------
ENTROPY
-------

The entropy contributions are T*S = T*(S(el)+S(vib)+S(rot)+S(trans))
     S(el)   - electronic entropy
     S(vib)  - vibrational entropy
     S(rot)  - rotational entropy
     S(trans)- translational entropy
The entropies will be listed as multiplied by the temperature to get
units of energy

Electronic entropy                ...      0.00000000 Eh      0.00 kcal/mol
Vibrational entropy               ...      0.00540813 Eh      3.39 kcal/mol
Rotational entropy                ...      0.01325171 Eh      8.32 kcal/mol
Translational entropy             ...      0.01904554 Eh     11.95 kcal/mol
-----------------------------------------------------------------------
Final entropy term                ...      0.03770537 Eh     23.66 kcal/mol

In case the symmetry of your molecule has not been determined correctly
or in case you have a reason to use a different symmetry number we print 
out the resulting rotational entropy values for sn=1,12:

 non-linear molecules -----------------------------------
|  sn= 1 | S(rot)=       0.01325171 Eh      8.32 kcal/mol|
|  sn= 2 | S(rot)=       0.01259725 Eh      7.90 kcal/mol|
|  sn= 3 | S(rot)=       0.01221442 Eh      7.66 kcal/mol|
|  sn= 4 | S(rot)=       0.01194279 Eh      7.49 kcal/mol|
|  sn= 5 | S(rot)=       0.01173211 Eh      7.36 kcal/mol|
|  sn= 6 | S(rot)=       0.01155996 Eh      7.25 kcal/mol|
|  sn= 7 | S(rot)=       0.01141442 Eh      7.16 kcal/mol|
|  sn= 8 | S(rot)=       0.01128834 Eh      7.08 kcal/mol|
|  sn= 9 | S(rot)=       0.01117713 Eh      7.01 kcal/mol|
|  sn=10 | S(rot)=       0.01107765 Eh      6.95 kcal/mol|
|  sn=11 | S(rot)=       0.01098766 Eh      6.89 kcal/mol|
|  sn=12 | S(rot)=       0.01090550 Eh      6.84 kcal/mol|
 linear molecules ---------------------------------------
|  Dinfh | S(rot)=       0.00828913 Eh      5.20 kcal/mol|
|  Cinfv | S(rot)=       0.00894359 Eh      5.61 kcal/mol|
 --------------------------------------------------------


-------------------
GIBBS FREE ENERGY
-------------------

The Gibbs free energy is G = H - T*S

Total enthalpy                    ...   -414.63957261 Eh 
Total entropy correction          ...     -0.03770537 Eh    -23.66 kcal/mol
-----------------------------------------------------------------------
Final Gibbs free energy         ...   -414.67727798 Eh

For completeness - the Gibbs free energy minus the electronic energy
G-E(el)                           ...      0.06921711 Eh     43.43 kcal/mol


Maximum memory used throughout the entire PROP-calculation: 34.6 MB

--------------------------------
SUGGESTED CITATIONS FOR THIS RUN
--------------------------------

Below you find a list of papers that are relevant to this ORCA run
We neither can nor want to force you to cite these papers, but we appreciate if you do
You receive ORCA, which is the product of decades of hard work by many enthusiastic individuals, for free
The only thing we kindly ask in return is that you cite our papers,
We deeply appreciate it, if you show your appreciation for ORCA by not just citing the generic ORCA reference.

Please note that relegating all ORCA citations to the supporting information does *not* help us.
SI sections are not indexed - citations you put there will not count into any citation statistics
But we need these citations in order to attract the funding resources that allow us to do what we are doing

Therefore, if you are a happy ORCA user, please consider citing a few of the papers listed below in the main body of your paper

In addition to the list printed below, the program has created the file Uracil_1.bibtex that contains the list in bibtex format
You can import this file easily into all common literature databanks and citation aid programs


List of essential papers. We consider these as the minimum necessary citations

  1. Neese, F.
     Software update: the ORCA program system, version 6.0
     WIRES Comput. Molec. Sci. 2025 15(1), e70019
     doi.org/10.1002/wcms.7019

List of papers to cite with high priority. The work reported in these papers was absolutely
necessary for this run to complete.
Our perspective: the developers of density functionals and basis sets usually get cited in chemistry papers
Good! But without the algorithms to do something with them, the functionals or basis sets would not do anything.
Hence, in our opinion, the algorithm design and method developments papers are equally worthy of getting cited

  1. Neese, F.
     An improvement of the resolution of the identity approximation for the formation of the Coulomb matrix
     J. Comp. Chem. 2003 24(14), 1740-1747
     doi.org/10.1002/jcc.10318
  2. Neese, F.; Wennmohs, F.; Hansen, A.; Becker, U.
     Efficient, approximate and parallel Hartree-Fock and hybrid DFT calculations. A 'chain-of-spheres' algorithm for the Hartree-Fock exchange
     Chem. Phys. 2009 356(1-3), 98-109
     doi.org/10.1016/j.chemphys.2008.10.036
  3. Bykov, D.; Petrenko, T.; Izsak, R.; Kossmann, S.; Becker, U.; Valeev, E.; Neese, F.
     Efficient implementation of the analytic second derivatives of Hartree-Fock and hybrid DFT energies: a detailed analysis of different approximations
     Molec. Phys. 2015 113 , 1961-1977
     doi.org/10.1080/00268976.2015.1025114
  4. Garcia-Rates, M.; Neese, F.
     Efficient implementation of the analytical second derivatives of hartree-fock and hybrid DFT energies within the framework of the conductor-like polarizable continuum model
     J. Comput. Chem. 2019 40 , 1816-1828
     doi.org/10.1002/jcc.25833
  5. Garcia-Rates, M.; Neese, F.
     Effect of the Solute Cavity on the Solvation Energy and its Derivatives within the Framework of the Gaussian Charge Scheme
     J. Comput. Chem. 2020 41 , 922-939
     doi.org/10.1002/jcc.26139
  6. Helmich-Paris, B.; de Souza, B.; Neese, F.; Izsák, R.
     An improved chain of spheres for exchange algorithm
     J. Chem. Phys. 2021 155(10), 104109
     doi.org/10.1063/5.0058766
  7. Neese, F.
     The SHARK Integral Generation and Digestion System
     J. Comp. Chem. 2022 44(3), 381
     doi.org/10.1002/jcc.26942

List of suggested additional citations. These are papers that are important in the 'surrounding' of 
of this run, or papers that preceded the highly important papers. If you like your results we are grateful for a citation.

  1. Izsak, R.; Neese, F.
     An overlap fitted chain of spheres exchange method
     J. Chem. Phys. 2011 135 , 144105
     doi.org/10.1063/1.3646921
  2. Izsak, R.; Hansen, A.; Neese, F.
     The resolution of identity and chain of spheres approximations for the LPNO-CCSD singles Fock term
     Molec. Phys. 2012 110 , 2413-2417
     doi.org/10.1080/00268976.2012.687466
  3. Neese, F.
     The ORCA program system
     WIRES Comput. Molec. Sci. 2012 2(1), 73-78
     doi.org/10.1002/wcms.81
  4. Izsak, R.; Neese, F.; Klopper, W.
     Robust fitting techniques in the chain of spheres approximation to the Fock exchange: The role of the complementary space
     J. Chem. Phys. 2013 139 , 
     doi.org/10.1063/1.4819264
  5. Neese, F.
     Software update: the ORCA program system, version 4.0
     WIRES Comput. Molec. Sci. 2018 8(1), 1-6
     doi.org/10.1002/wcms.1327
  6. Neese, F.; Wennmohs, F.; Becker, U.; Riplinger, C.
     The ORCA quantum chemistry program package
     J. Chem. Phys. 2020 152(22), 224108
     doi.org/10.1063/5.0004608
  7. Neese, F.
     Software update: The ORCA program system—Version 5.0
     WIRES Comput. Molec. Sci. 2022 12(1), e1606
     doi.org/10.1002/wcms.1606

List of optional additional citations

  1. Neese, F.
     Approximate second-order SCF convergence for spin unrestricted wavefunctions
     Chem. Phys. Lett. 2000 325(1-3), 93-98
     doi.org/10.1016/s0009-2614(00)00662-x

Timings for individual modules:

Sum of individual times          ...       55.578 sec (=   0.926 min)
Startup calculation              ...        6.581 sec (=   0.110 min)  11.8 %
SCF iterations                   ...       19.175 sec (=   0.320 min)  34.5 %
Property integrals               ...        7.456 sec (=   0.124 min)  13.4 %
SCF Response                     ...        4.960 sec (=   0.083 min)   8.9 %
Property calculations            ...        8.146 sec (=   0.136 min)  14.7 %
SCF Gradient evaluation          ...        9.251 sec (=   0.154 min)  16.6 %
Geometry relaxation              ...        0.009 sec (=   0.000 min)   0.0 %
                             ****ORCA TERMINATED NORMALLY****
TOTAL RUN TIME: 0 days 0 hours 0 minutes 59 seconds 256 msec
