13
* (null), Energy   -1000.0000000
C     1.393781    0.533776   -0.062691   -0.002103   -0.171194    0.026382
C     1.168148   -0.779758    0.160441   -0.018055    0.192344   -0.027968
N    -0.116197   -1.262094    0.357179    0.364426   -0.078299   -0.022643
C    -1.173993   -0.446979    0.334824   -0.691470   -0.299858    0.112883
N    -0.982141    0.854104    0.116669    0.164195    0.260596   -0.055851
C     0.285100    1.476626   -0.101181    0.005099   -0.108101    0.016103
O    -2.392774   -0.849779    0.515859    0.199513    0.104507   -0.035429
O     0.338858    2.672655   -0.290012   -0.015992    0.058512   -0.007500
H     1.953348   -1.535224    0.201378   -0.347796   -0.091659    0.048023
H    -0.254993   -2.258813    0.525028   -1.306110    0.163928    0.097898
H     2.401547    0.916834   -0.219517   -0.132971    0.076066    0.001637
H    -1.805505    1.460126    0.102516   -0.574818   -0.714764    0.167217
H    -2.476740   -1.809302    0.672136    0.522004    0.054906   -0.060699
13
* Frequency(31) 1685.4728
C     1.393542    0.514320   -0.059692   -0.002103   -0.171194    0.026382
C     1.166096   -0.757900    0.157263   -0.018055    0.192344   -0.027968
N    -0.074782   -1.270992    0.354606    0.364426   -0.078299   -0.022643
C    -1.252575   -0.481056    0.347653   -0.691470   -0.299858    0.112883
N    -0.963481    0.883719    0.110322    0.164195    0.260596   -0.055851
C     0.285680    1.464341   -0.099351    0.005099   -0.108101    0.016103
O    -2.370101   -0.837903    0.511833    0.199513    0.104507   -0.035429
O     0.337041    2.679304   -0.290864   -0.015992    0.058512   -0.007500
H     1.913823   -1.545640    0.206835   -0.347796   -0.091659    0.048023
H    -0.403426   -2.240184    0.536154   -1.306110    0.163928    0.097898
H     2.386435    0.925478   -0.219330   -0.132971    0.076066    0.001637
H    -1.870830    1.378897    0.121519   -0.574818   -0.714764    0.167217
H    -2.417417   -1.803062    0.665238    0.522004    0.054906   -0.060699
13
* Frequency(31) 1685.4728
C     1.393329    0.496973   -0.057019   -0.002103   -0.171194    0.026382
C     1.164267   -0.738409    0.154429   -0.018055    0.192344   -0.027968
N    -0.037855   -1.278926    0.352312    0.364426   -0.078299   -0.022643
C    -1.322641   -0.511441    0.359091   -0.691470   -0.299858    0.112883
N    -0.946843    0.910125    0.104662    0.164195    0.260596   -0.055851
C     0.286196    1.453387   -0.097720    0.005099   -0.108101    0.016103
O    -2.349884   -0.827313    0.508243    0.199513    0.104507   -0.035429
O     0.335420    2.685233   -0.291624   -0.015992    0.058512   -0.007500
H     1.878581   -1.554928    0.211702   -0.347796   -0.091659    0.048023
H    -0.535773   -2.223573    0.546074   -1.306110    0.163928    0.097898
H     2.372961    0.933186   -0.219165   -0.132971    0.076066    0.001637
H    -1.929076    1.306470    0.138463   -0.574818   -0.714764    0.167217
H    -2.364522   -1.797498    0.659087    0.522004    0.054906   -0.060699
13
* Frequency(31) 1685.4728
C     1.393165    0.483614   -0.054960   -0.002103   -0.171194    0.026382
C     1.162858   -0.723400    0.152246   -0.018055    0.192344   -0.027968
N    -0.009417   -1.285036    0.350545    0.364426   -0.078299   -0.022643
C    -1.376599   -0.534840    0.367900   -0.691470   -0.299858    0.112883
N    -0.934030    0.930461    0.100304    0.164195    0.260596   -0.055851
C     0.286594    1.444951   -0.096463    0.005099   -0.108101    0.016103
O    -2.334315   -0.819158    0.505478    0.199513    0.104507   -0.035429
O     0.334172    2.689799   -0.292210   -0.015992    0.058512   -0.007500
H     1.851441   -1.562081    0.215449   -0.347796   -0.091659    0.048023
H    -0.637694   -2.210781    0.553713   -1.306110    0.163928    0.097898
H     2.362585    0.939121   -0.219037   -0.132971    0.076066    0.001637
H    -1.973931    1.250694    0.151512   -0.574818   -0.714764    0.167217
H    -2.323789   -1.793214    0.654351    0.522004    0.054906   -0.060699
13
* Frequency(31) 1685.4728
C     1.393068    0.475691   -0.053739   -0.002103   -0.171194    0.026382
C     1.162022   -0.714498    0.150952   -0.018055    0.192344   -0.027968
N     0.007449   -1.288660    0.349497    0.364426   -0.078299   -0.022643
C    -1.408602   -0.548718    0.373124   -0.691470   -0.299858    0.112883
N    -0.926431    0.942521    0.097719    0.164195    0.260596   -0.055851
C     0.286830    1.439948   -0.095718    0.005099   -0.108101    0.016103
O    -2.325082   -0.814321    0.503838    0.199513    0.104507   -0.035429
O     0.333432    2.692507   -0.292557   -0.015992    0.058512   -0.007500
H     1.835345   -1.566323    0.217672   -0.347796   -0.091659    0.048023
H    -0.698143   -2.203194    0.558244   -1.306110    0.163928    0.097898
H     2.356431    0.942642   -0.218961   -0.132971    0.076066    0.001637
H    -2.000535    1.217614    0.159251   -0.574818   -0.714764    0.167217
H    -2.299629   -1.790673    0.651542    0.522004    0.054906   -0.060699
13
* Frequency(31) 1685.4728
C     1.393048    0.474063   -0.053488   -0.002103   -0.171194    0.026382
C     1.161851   -0.712668    0.150686   -0.018055    0.192344   -0.027968
N     0.010917   -1.289405    0.349281    0.364426   -0.078299   -0.022643
C    -1.415181   -0.551571    0.374198   -0.691470   -0.299858    0.112883
N    -0.924869    0.945001    0.097188    0.164195    0.260596   -0.055851
C     0.286879    1.438920   -0.095565    0.005099   -0.108101    0.016103
O    -2.323183   -0.813327    0.503501    0.199513    0.104507   -0.035429
O     0.333280    2.693064   -0.292628   -0.015992    0.058512   -0.007500
H     1.832035   -1.567195    0.218128   -0.347796   -0.091659    0.048023
H    -0.710570   -2.201635    0.559175   -1.306110    0.163928    0.097898
H     2.355166    0.943366   -0.218945   -0.132971    0.076066    0.001637
H    -2.006004    1.210813    0.160842   -0.574818   -0.714764    0.167217
H    -2.294663   -1.790150    0.650964    0.522004    0.054906   -0.060699
13
* Frequency(31) 1685.4728
C     1.393107    0.478905   -0.054235   -0.002103   -0.171194    0.026382
C     1.162361   -0.718108    0.151477   -0.018055    0.192344   -0.027968
N     0.000609   -1.287190    0.349922    0.364426   -0.078299   -0.022643
C    -1.395623   -0.543090    0.371005   -0.691470   -0.299858    0.112883
N    -0.929513    0.937630    0.098767    0.164195    0.260596   -0.055851
C     0.286734    1.441977   -0.096020    0.005099   -0.108101    0.016103
O    -2.328826   -0.816283    0.504503    0.199513    0.104507   -0.035429
O     0.333732    2.691409   -0.292416   -0.015992    0.058512   -0.007500
H     1.841872   -1.564602    0.216770   -0.347796   -0.091659    0.048023
H    -0.673628   -2.206271    0.556406   -1.306110    0.163928    0.097898
H     2.358927    0.941214   -0.218992   -0.132971    0.076066    0.001637
H    -1.989746    1.231030    0.156112   -0.574818   -0.714764    0.167217
H    -2.309427   -1.791703    0.652681    0.522004    0.054906   -0.060699
13
* Frequency(31) 1685.4728
C     1.393240    0.489693   -0.055897   -0.002103   -0.171194    0.026382
C     1.163499   -0.730229    0.153239   -0.018055    0.192344   -0.027968
N    -0.022356   -1.282256    0.351349    0.364426   -0.078299   -0.022643
C    -1.352049   -0.524193    0.363892   -0.691470   -0.299858    0.112883
N    -0.939860    0.921208    0.102287    0.164195    0.260596   -0.055851
C     0.286413    1.448789   -0.097035    0.005099   -0.108101    0.016103
O    -2.341399   -0.822869    0.506736    0.199513    0.104507   -0.035429
O     0.334740    2.687722   -0.291943   -0.015992    0.058512   -0.007500
H     1.863790   -1.558826    0.213744   -0.347796   -0.091659    0.048023
H    -0.591321   -2.216601    0.550237   -1.306110    0.163928    0.097898
H     2.367306    0.936421   -0.219095   -0.132971    0.076066    0.001637
H    -1.953523    1.276072    0.145575   -0.574818   -0.714764    0.167217
H    -2.342322   -1.795163    0.656506    0.522004    0.054906   -0.060699
13
* Frequency(31) 1685.4728
C     1.393431    0.505258   -0.058296   -0.002103   -0.171194    0.026382
C     1.165141   -0.747717    0.155782   -0.018055    0.192344   -0.027968
N    -0.055490   -1.275137    0.353407    0.364426   -0.078299   -0.022643
C    -1.289179   -0.496930    0.353628   -0.691470   -0.299858    0.112883
N    -0.954789    0.897514    0.107365    0.164195    0.260596   -0.055851
C     0.285949    1.458618   -0.098499    0.005099   -0.108101    0.016103
O    -2.359539   -0.832370    0.509957    0.199513    0.104507   -0.035429
O     0.336194    2.682402   -0.291261   -0.015992    0.058512   -0.007500
H     1.895412   -1.550493    0.209378   -0.347796   -0.091659    0.048023
H    -0.472567   -2.231506    0.541336   -1.306110    0.163928    0.097898
H     2.379396    0.929505   -0.219244   -0.132971    0.076066    0.001637
H    -1.901259    1.341060    0.130371   -0.574818   -0.714764    0.167217
H    -2.389784   -1.800155    0.662025    0.522004    0.054906   -0.060699
13
* Frequency(31) 1685.4728
C     1.393660    0.523914   -0.061171   -0.002103   -0.171194    0.026382
C     1.167108   -0.768678    0.158830   -0.018055    0.192344   -0.027968
N    -0.095203   -1.266605    0.355875    0.364426   -0.078299   -0.022643
C    -1.213827   -0.464253    0.341327   -0.691470   -0.299858    0.112883
N    -0.972682    0.869116    0.113451    0.164195    0.260596   -0.055851
C     0.285394    1.470398   -0.100254    0.005099   -0.108101    0.016103
O    -2.381281   -0.843759    0.513818    0.199513    0.104507   -0.035429
O     0.337937    2.676025   -0.290444   -0.015992    0.058512   -0.007500
H     1.933312   -1.540504    0.204144   -0.347796   -0.091659    0.048023
H    -0.330236   -2.249370    0.530668   -1.306110    0.163928    0.097898
H     2.393886    0.921216   -0.219422   -0.132971    0.076066    0.001637
H    -1.838619    1.418950    0.112149   -0.574818   -0.714764    0.167217
H    -2.446668   -1.806139    0.668639    0.522004    0.054906   -0.060699
13
* Frequency(31) 1685.4728
C     1.393903    0.543638   -0.064210   -0.002103   -0.171194    0.026382
C     1.169188   -0.790839    0.162052   -0.018055    0.192344   -0.027968
N    -0.137191   -1.257583    0.358484    0.364426   -0.078299   -0.022643
C    -1.134159   -0.429705    0.328321   -0.691470   -0.299858    0.112883
N    -0.991600    0.839091    0.119886    0.164195    0.260596   -0.055851
C     0.284806    1.482853   -0.102109    0.005099   -0.108101    0.016103
O    -2.404268   -0.855800    0.517900    0.199513    0.104507   -0.035429
O     0.339779    2.669284   -0.289580   -0.015992    0.058512   -0.007500
H     1.973384   -1.529944    0.198611   -0.347796   -0.091659    0.048023
H    -0.179751   -2.268257    0.519388   -1.306110    0.163928    0.097898
H     2.409207    0.912452   -0.219611   -0.132971    0.076066    0.001637
H    -1.772391    1.501303    0.092883   -0.574818   -0.714764    0.167217
H    -2.506812   -1.812465    0.675633    0.522004    0.054906   -0.060699
13
* Frequency(31) 1685.4728
C     1.394132    0.562294   -0.067085   -0.002103   -0.171194    0.026382
C     1.171156   -0.811800    0.165100   -0.018055    0.192344   -0.027968
N    -0.176903   -1.249051    0.360951    0.364426   -0.078299   -0.022643
C    -1.058807   -0.397028    0.316020   -0.691470   -0.299858    0.112883
N    -1.009493    0.810693    0.125973    0.164195    0.260596   -0.055851
C     0.284251    1.494633   -0.103864    0.005099   -0.108101    0.016103
O    -2.426009   -0.867188    0.521761    0.199513    0.104507   -0.035429
O     0.341522    2.662908   -0.288763   -0.015992    0.058512   -0.007500
H     2.011285   -1.519955    0.193378   -0.347796   -0.091659    0.048023
H    -0.037419   -2.286121    0.508720   -1.306110    0.163928    0.097898
H     2.423697    0.904162   -0.219789   -0.132971    0.076066    0.001637
H    -1.709751    1.579193    0.074661   -0.574818   -0.714764    0.167217
H    -2.563696   -1.818448    0.682247    0.522004    0.054906   -0.060699
13
* Frequency(31) 1685.4728
C     1.394323    0.577859   -0.069484   -0.002103   -0.171194    0.026382
C     1.172797   -0.829288    0.167643   -0.018055    0.192344   -0.027968
N    -0.210038   -1.241932    0.363010    0.364426   -0.078299   -0.022643
C    -0.995937   -0.369765    0.305757   -0.691470   -0.299858    0.112883
N    -1.024422    0.786999    0.131051    0.164195    0.260596   -0.055851
C     0.283787    1.504462   -0.105328    0.005099   -0.108101    0.016103
O    -2.444149   -0.876690    0.524982    0.199513    0.104507   -0.035429
O     0.342976    2.657588   -0.288081   -0.015992    0.058512   -0.007500
H     2.042907   -1.511621    0.189012   -0.347796   -0.091659    0.048023
H     0.081334   -2.301025    0.499819   -1.306110    0.163928    0.097898
H     2.435787    0.897246   -0.219938   -0.132971    0.076066    0.001637
H    -1.657487    1.644181    0.059457   -0.574818   -0.714764    0.167217
H    -2.611158   -1.823440    0.687766    0.522004    0.054906   -0.060699
13
* Frequency(31) 1685.4728
C     1.394455    0.588647   -0.071146   -0.002103   -0.171194    0.026382
C     1.173935   -0.841409    0.169406   -0.018055    0.192344   -0.027968
N    -0.233003   -1.236998    0.364437    0.364426   -0.078299   -0.022643
C    -0.952362   -0.350868    0.298643   -0.691470   -0.299858    0.112883
N    -1.034769    0.770577    0.134570    0.164195    0.260596   -0.055851
C     0.283466    1.511274   -0.106343    0.005099   -0.108101    0.016103
O    -2.456722   -0.883276    0.527215    0.199513    0.104507   -0.035429
O     0.343984    2.653900   -0.287608   -0.015992    0.058512   -0.007500
H     2.064824   -1.505845    0.185985   -0.347796   -0.091659    0.048023
H     0.163642   -2.311356    0.493650   -1.306110    0.163928    0.097898
H     2.444166    0.892453   -0.220041   -0.132971    0.076066    0.001637
H    -1.621264    1.689223    0.048919   -0.574818   -0.714764    0.167217
H    -2.644053   -1.826900    0.691591    0.522004    0.054906   -0.060699
13
* Frequency(31) 1685.4728
C     1.394515    0.593489   -0.071893   -0.002103   -0.171194    0.026382
C     1.174446   -0.846849    0.170197   -0.018055    0.192344   -0.027968
N    -0.243310   -1.234783    0.365078    0.364426   -0.078299   -0.022643
C    -0.932805   -0.342387    0.295450   -0.691470   -0.299858    0.112883
N    -1.039413    0.763206    0.136150    0.164195    0.260596   -0.055851
C     0.283321    1.514332   -0.106798    0.005099   -0.108101    0.016103
O    -2.462365   -0.886232    0.528217    0.199513    0.104507   -0.035429
O     0.344436    2.652245   -0.287396   -0.015992    0.058512   -0.007500
H     2.074661   -1.503253    0.184627   -0.347796   -0.091659    0.048023
H     0.200584   -2.315992    0.490881   -1.306110    0.163928    0.097898
H     2.447927    0.890301   -0.220088   -0.132971    0.076066    0.001637
H    -1.605006    1.709439    0.044190   -0.574818   -0.714764    0.167217
H    -2.658817   -1.828453    0.693308    0.522004    0.054906   -0.060699
13
* Frequency(31) 1685.4728
C     1.394495    0.591860   -0.071642   -0.002103   -0.171194    0.026382
C     1.174274   -0.845019    0.169930   -0.018055    0.192344   -0.027968
N    -0.239843   -1.235528    0.364862    0.364426   -0.078299   -0.022643
C    -0.939384   -0.345240    0.296524   -0.691470   -0.299858    0.112883
N    -1.037851    0.765686    0.135619    0.164195    0.260596   -0.055851
C     0.283370    1.513303   -0.106645    0.005099   -0.108101    0.016103
O    -2.460467   -0.885237    0.527880    0.199513    0.104507   -0.035429
O     0.344284    2.652802   -0.287467   -0.015992    0.058512   -0.007500
H     2.071352   -1.504125    0.185084   -0.347796   -0.091659    0.048023
H     0.188157   -2.314432    0.491812   -1.306110    0.163928    0.097898
H     2.446662    0.891025   -0.220072   -0.132971    0.076066    0.001637
H    -1.610475    1.702639    0.045781   -0.574818   -0.714764    0.167217
H    -2.653851   -1.827931    0.692731    0.522004    0.054906   -0.060699
13
* Frequency(31) 1685.4728
C     1.394398    0.583937   -0.070421   -0.002103   -0.171194    0.026382
C     1.173439   -0.836117    0.168636   -0.018055    0.192344   -0.027968
N    -0.222977   -1.239152    0.363814    0.364426   -0.078299   -0.022643
C    -0.971386   -0.359118    0.301749   -0.691470   -0.299858    0.112883
N    -1.030251    0.777747    0.133034    0.164195    0.260596   -0.055851
C     0.283606    1.508300   -0.105900    0.005099   -0.108101    0.016103
O    -2.451233   -0.880401    0.526240    0.199513    0.104507   -0.035429
O     0.343544    2.655510   -0.287814   -0.015992    0.058512   -0.007500
H     2.055255   -1.508367    0.187307   -0.347796   -0.091659    0.048023
H     0.127708   -2.306846    0.496343   -1.306110    0.163928    0.097898
H     2.440508    0.894546   -0.219996   -0.132971    0.076066    0.001637
H    -1.637078    1.669558    0.053520   -0.574818   -0.714764    0.167217
H    -2.629691   -1.825389    0.689921    0.522004    0.054906   -0.060699
13
* Frequency(31) 1685.4728
C     1.394234    0.570578   -0.068362   -0.002103   -0.171194    0.026382
C     1.172030   -0.821108    0.166454   -0.018055    0.192344   -0.027968
N    -0.194539   -1.245262    0.362047    0.364426   -0.078299   -0.022643
C    -1.025344   -0.382517    0.310557   -0.691470   -0.299858    0.112883
N    -1.017439    0.798082    0.128675    0.164195    0.260596   -0.055851
C     0.284004    1.499865   -0.104643    0.005099   -0.108101    0.016103
O    -2.435664   -0.872246    0.523475    0.199513    0.104507   -0.035429
O     0.342296    2.660076   -0.288400   -0.015992    0.058512   -0.007500
H     2.028116   -1.515520    0.191054   -0.347796   -0.091659    0.048023
H     0.025787   -2.294054    0.503983   -1.306110    0.163928    0.097898
H     2.430132    0.900481   -0.219869   -0.132971    0.076066    0.001637
H    -1.681934    1.613782    0.066568   -0.574818   -0.714764    0.167217
H    -2.588957   -1.821105    0.685185    0.522004    0.054906   -0.060699
13
* Frequency(31) 1685.4728
C     1.394020    0.553231   -0.065689   -0.002103   -0.171194    0.026382
C     1.170200   -0.801617    0.163620   -0.018055    0.192344   -0.027968
N    -0.157612   -1.253196    0.359753    0.364426   -0.078299   -0.022643
C    -1.095411   -0.412902    0.321996   -0.691470   -0.299858    0.112883
N    -1.000801    0.824488    0.123016    0.164195    0.260596   -0.055851
C     0.284521    1.488911   -0.103011    0.005099   -0.108101    0.016103
O    -2.415448   -0.861656    0.519885    0.199513    0.104507   -0.035429
O     0.340676    2.666005   -0.289160   -0.015992    0.058512   -0.007500
H     1.992873   -1.524807    0.195920   -0.347796   -0.091659    0.048023
H    -0.106561   -2.277443    0.513903   -1.306110    0.163928    0.097898
H     2.416658    0.908189   -0.219703   -0.132971    0.076066    0.001637
H    -1.740180    1.541356    0.083512   -0.574818   -0.714764    0.167217
H    -2.536063   -1.815541    0.679034    0.522004    0.054906   -0.060699
13
* Frequency(31) 1685.4728
C     1.393781    0.533776   -0.062691   -0.002103   -0.171194    0.026382
C     1.168148   -0.779758    0.160441   -0.018055    0.192344   -0.027968
N    -0.116197   -1.262094    0.357179    0.364426   -0.078299   -0.022643
C    -1.173993   -0.446979    0.334824   -0.691470   -0.299858    0.112883
N    -0.982141    0.854104    0.116669    0.164195    0.260596   -0.055851
C     0.285100    1.476626   -0.101181    0.005099   -0.108101    0.016103
O    -2.392774   -0.849779    0.515859    0.199513    0.104507   -0.035429
O     0.338858    2.672655   -0.290012   -0.015992    0.058512   -0.007500
H     1.953348   -1.535224    0.201378   -0.347796   -0.091659    0.048023
H    -0.254993   -2.258813    0.525028   -1.306110    0.163928    0.097898
H     2.401547    0.916834   -0.219517   -0.132971    0.076066    0.001637
H    -1.805505    1.460126    0.102516   -0.574818   -0.714764    0.167217
H    -2.476740   -1.809302    0.672136    0.522004    0.054906   -0.060699
