13
* (null), Energy   -1000.0000000
C     1.393781    0.533776   -0.062691    0.142506   -0.092127   -0.005925
C     1.168148   -0.779758    0.160441   -0.451083   -0.097255    0.069511
N    -0.116197   -1.262094    0.357179   -0.285508   -0.201731    0.108621
C    -1.173993   -0.446979    0.334824   -0.066934   -0.003319    0.017456
N    -0.982141    0.854104    0.116669    0.423752   -0.042716   -0.064619
C     0.285100    1.476626   -0.101181    0.474586    0.411799   -0.127352
O    -2.392774   -0.849779    0.515859    0.035404   -0.346576    0.061164
O     0.338858    2.672655   -0.290012   -0.274159    0.502404   -0.040258
H     1.953348   -1.535224    0.201378   -0.489840   -0.136639    0.040922
H    -0.254993   -2.258813    0.525028   -0.352249   -0.285581   -0.425592
H     2.401547    0.916834   -0.219517    0.497082   -0.965283    0.091268
H    -1.805505    1.460126    0.102516    0.542800    0.115713   -0.005572
H    -2.476740   -1.809302    0.672136    0.490181   -0.415422   -0.092481
13
* Frequency(12)  542.2658
C     1.409976    0.523306   -0.063364    0.142506   -0.092127   -0.005925
C     1.116885   -0.790811    0.168341   -0.451083   -0.097255    0.069511
N    -0.148643   -1.285020    0.369524   -0.285508   -0.201731    0.108621
C    -1.181600   -0.447356    0.336808   -0.066934   -0.003319    0.017456
N    -0.933984    0.849249    0.109325    0.423752   -0.042716   -0.064619
C     0.339034    1.523425   -0.115654    0.474586    0.411799   -0.127352
O    -2.388751   -0.889166    0.522810    0.035404   -0.346576    0.061164
O     0.307701    2.729750   -0.294587   -0.274159    0.502404   -0.040258
H     1.897680   -1.550752    0.206028   -0.489840   -0.136639    0.040922
H    -0.295025   -2.291268    0.476662   -0.352249   -0.285581   -0.425592
H     2.458037    0.807134   -0.209144    0.497082   -0.965283    0.091268
H    -1.743819    1.473277    0.101883    0.542800    0.115713   -0.005572
H    -2.421033   -1.856512    0.661626    0.490181   -0.415422   -0.092481
13
* Frequency(12)  542.2658
C     1.424417    0.513971   -0.063964    0.142506   -0.092127   -0.005925
C     1.071177   -0.800666    0.175384   -0.451083   -0.097255    0.069511
N    -0.177574   -1.305461    0.380530   -0.285508   -0.201731    0.108621
C    -1.188382   -0.447692    0.338577   -0.066934   -0.003319    0.017456
N    -0.891045    0.844921    0.102778    0.423752   -0.042716   -0.064619
C     0.387124    1.565152   -0.128559    0.474586    0.411799   -0.127352
O    -2.385163   -0.924284    0.529008    0.035404   -0.346576    0.061164
O     0.279921    2.780659   -0.298667   -0.274159    0.502404   -0.040258
H     1.848045   -1.564598    0.210175   -0.489840   -0.136639    0.040922
H    -0.330718   -2.320206    0.433537   -0.352249   -0.285581   -0.425592
H     2.508406    0.709322   -0.199896    0.497082   -0.965283    0.091268
H    -1.688817    1.485002    0.101318    0.542800    0.115713   -0.005572
H    -2.371363   -1.898607    0.652255    0.490181   -0.415422   -0.092481
13
* Frequency(12)  542.2658
C     1.435537    0.506782   -0.064427    0.142506   -0.092127   -0.005925
C     1.035977   -0.808255    0.180808   -0.451083   -0.097255    0.069511
N    -0.199853   -1.321203    0.389006   -0.285508   -0.201731    0.108621
C    -1.193605   -0.447951    0.339939   -0.066934   -0.003319    0.017456
N    -0.857978    0.841587    0.097735    0.423752   -0.042716   -0.064619
C     0.424158    1.597286   -0.138496    0.474586    0.411799   -0.127352
O    -2.382401   -0.951329    0.533781    0.035404   -0.346576    0.061164
O     0.258527    2.819863   -0.301808   -0.274159    0.502404   -0.040258
H     1.809821   -1.575260    0.213368   -0.489840   -0.136639    0.040922
H    -0.358205   -2.342491    0.400326   -0.352249   -0.285581   -0.425592
H     2.547196    0.633998   -0.192774    0.497082   -0.965283    0.091268
H    -1.646460    1.494031    0.100883    0.542800    0.115713   -0.005572
H    -2.333113   -1.931024    0.645038    0.490181   -0.415422   -0.092481
13
* Frequency(12)  542.2658
C     1.442132    0.502518   -0.064701    0.142506   -0.092127   -0.005925
C     1.015100   -0.812756    0.184025   -0.451083   -0.097255    0.069511
N    -0.213067   -1.330539    0.394034   -0.285508   -0.201731    0.108621
C    -1.196703   -0.448105    0.340747   -0.066934   -0.003319    0.017456
N    -0.838366    0.839610    0.094744    0.423752   -0.042716   -0.064619
C     0.446122    1.616345   -0.144391    0.474586    0.411799   -0.127352
O    -2.380762   -0.967369    0.536611    0.035404   -0.346576    0.061164
O     0.245839    2.843115   -0.303671   -0.274159    0.502404   -0.040258
H     1.787150   -1.581584    0.215262   -0.489840   -0.136639    0.040922
H    -0.374508   -2.355708    0.380629   -0.352249   -0.285581   -0.425592
H     2.570201    0.589323   -0.188550    0.497082   -0.965283    0.091268
H    -1.621338    1.499387    0.100625    0.542800    0.115713   -0.005572
H    -2.310426   -1.950250    0.640758    0.490181   -0.415422   -0.092481
13
* Frequency(12)  542.2658
C     1.443488    0.501641   -0.064757    0.142506   -0.092127   -0.005925
C     1.010809   -0.813681    0.184687   -0.451083   -0.097255    0.069511
N    -0.215783   -1.332459    0.395067   -0.285508   -0.201731    0.108621
C    -1.197340   -0.448137    0.340913   -0.066934   -0.003319    0.017456
N    -0.834334    0.839204    0.094130    0.423752   -0.042716   -0.064619
C     0.450638    1.620263   -0.145602    0.474586    0.411799   -0.127352
O    -2.380425   -0.970667    0.537193    0.035404   -0.346576    0.061164
O     0.243230    2.847895   -0.304054   -0.274159    0.502404   -0.040258
H     1.782490   -1.582884    0.215651   -0.489840   -0.136639    0.040922
H    -0.377859   -2.358426    0.376580   -0.352249   -0.285581   -0.425592
H     2.574931    0.580138   -0.187682    0.497082   -0.965283    0.091268
H    -1.616174    1.500488    0.100572    0.542800    0.115713   -0.005572
H    -2.305762   -1.954203    0.639878    0.490181   -0.415422   -0.092481
13
* Frequency(12)  542.2658
C     1.439457    0.504247   -0.064590    0.142506   -0.092127   -0.005925
C     1.023567   -0.810931    0.182721   -0.451083   -0.097255    0.069511
N    -0.207708   -1.326753    0.391995   -0.285508   -0.201731    0.108621
C    -1.195447   -0.448043    0.340419   -0.066934   -0.003319    0.017456
N    -0.846320    0.840412    0.095957    0.423752   -0.042716   -0.064619
C     0.437215    1.608616   -0.142000    0.474586    0.411799   -0.127352
O    -2.381426   -0.960864    0.535463    0.035404   -0.346576    0.061164
O     0.250985    2.833685   -0.302916   -0.274159    0.502404   -0.040258
H     1.796344   -1.579019    0.214494   -0.489840   -0.136639    0.040922
H    -0.367896   -2.350348    0.388617   -0.352249   -0.285581   -0.425592
H     2.560871    0.607440   -0.190263    0.497082   -0.965283    0.091268
H    -1.631526    1.497215    0.100730    0.542800    0.115713   -0.005572
H    -2.319627   -1.942453    0.642494    0.490181   -0.415422   -0.092481
13
* Frequency(12)  542.2658
C     1.430477    0.510053   -0.064216    0.142506   -0.092127   -0.005925
C     1.051993   -0.804802    0.178340   -0.451083   -0.097255    0.069511
N    -0.189716   -1.314040    0.385150   -0.285508   -0.201731    0.108621
C    -1.191229   -0.447834    0.339319   -0.066934   -0.003319    0.017456
N    -0.873023    0.843104    0.100029    0.423752   -0.042716   -0.064619
C     0.407307    1.582665   -0.133975    0.474586    0.411799   -0.127352
O    -2.383658   -0.939024    0.531609    0.035404   -0.346576    0.061164
O     0.268261    2.802025   -0.300379   -0.274159    0.502404   -0.040258
H     1.827213   -1.570409    0.211915   -0.489840   -0.136639    0.040922
H    -0.345699   -2.332352    0.415437   -0.352249   -0.285581   -0.425592
H     2.529547    0.668270   -0.196015    0.497082   -0.965283    0.091268
H    -1.665732    1.489923    0.101081    0.542800    0.115713   -0.005572
H    -2.350517   -1.916274    0.648322    0.490181   -0.415422   -0.092481
13
* Frequency(12)  542.2658
C     1.417520    0.518429   -0.063677    0.142506   -0.092127   -0.005925
C     1.093006   -0.795959    0.172020   -0.451083   -0.097255    0.069511
N    -0.163757   -1.295699    0.375274   -0.285508   -0.201731    0.108621
C    -1.185143   -0.447532    0.337732   -0.066934   -0.003319    0.017456
N    -0.911552    0.846988    0.105905    0.423752   -0.042716   -0.064619
C     0.364157    1.545224   -0.122396    0.474586    0.411799   -0.127352
O    -2.386877   -0.907512    0.526048    0.035404   -0.346576    0.061164
O     0.293188    2.756346   -0.296718   -0.274159    0.502404   -0.040258
H     1.871750   -1.557985    0.208195   -0.489840   -0.136639    0.040922
H    -0.313672   -2.306386    0.454132   -0.352249   -0.285581   -0.425592
H     2.484351    0.756035   -0.204313    0.497082   -0.965283    0.091268
H    -1.715084    1.479402    0.101588    0.542800    0.115713   -0.005572
H    -2.395085   -1.878503    0.656730    0.490181   -0.415422   -0.092481
13
* Frequency(12)  542.2658
C     1.401991    0.528469   -0.063032    0.142506   -0.092127   -0.005925
C     1.142162   -0.785361    0.164445   -0.451083   -0.097255    0.069511
N    -0.132644   -1.273715    0.363437   -0.285508   -0.201731    0.108621
C    -1.177849   -0.447170    0.335830   -0.066934   -0.003319    0.017456
N    -0.957729    0.851643    0.112946    0.423752   -0.042716   -0.064619
C     0.312440    1.500349   -0.108518    0.474586    0.411799   -0.127352
O    -2.390735   -0.869745    0.519383    0.035404   -0.346576    0.061164
O     0.323064    2.701597   -0.292331   -0.274159    0.502404   -0.040258
H     1.925129   -1.543095    0.203735   -0.489840   -0.136639    0.040922
H    -0.275286   -2.275265    0.500511   -0.352249   -0.285581   -0.425592
H     2.430182    0.861225   -0.214259    0.497082   -0.965283    0.091268
H    -1.774235    1.466792    0.102195    0.542800    0.115713   -0.005572
H    -2.448501   -1.833233    0.666808    0.490181   -0.415422   -0.092481
13
* Frequency(12)  542.2658
C     1.385572    0.539083   -0.062349    0.142506   -0.092127   -0.005925
C     1.194134   -0.774156    0.156437   -0.451083   -0.097255    0.069511
N    -0.099749   -1.250473    0.350922   -0.285508   -0.201731    0.108621
C    -1.170137   -0.446788    0.333819   -0.066934   -0.003319    0.017456
N    -1.006552    0.856564    0.120391    0.423752   -0.042716   -0.064619
C     0.257760    1.452903   -0.093845    0.474586    0.411799   -0.127352
O    -2.394814   -0.829814    0.512335    0.035404   -0.346576    0.061164
O     0.354652    2.643712   -0.287693   -0.274159    0.502404   -0.040258
H     1.981567   -1.527352    0.199020   -0.489840   -0.136639    0.040922
H    -0.234701   -2.242362    0.549546   -0.352249   -0.285581   -0.425592
H     2.372911    0.972442   -0.224774    0.497082   -0.965283    0.091268
H    -1.836775    1.453460    0.102837    0.542800    0.115713   -0.005572
H    -2.504978   -1.785370    0.677464    0.490181   -0.415422   -0.092481
13
* Frequency(12)  542.2658
C     1.370043    0.549122   -0.061704    0.142506   -0.092127   -0.005925
C     1.243290   -0.763558    0.148862   -0.451083   -0.097255    0.069511
N    -0.068636   -1.228489    0.339085   -0.285508   -0.201731    0.108621
C    -1.162843   -0.446426    0.331916   -0.066934   -0.003319    0.017456
N    -1.052730    0.861219    0.127433    0.423752   -0.042716   -0.064619
C     0.206043    1.408028   -0.079967    0.474586    0.411799   -0.127352
O    -2.398672   -0.792046    0.505670    0.035404   -0.346576    0.061164
O     0.384528    2.588963   -0.283306   -0.274159    0.502404   -0.040258
H     2.034947   -1.512462    0.194561   -0.489840   -0.136639    0.040922
H    -0.196315   -2.211241    0.595924   -0.352249   -0.285581   -0.425592
H     2.318742    1.077632   -0.234720    0.497082   -0.965283    0.091268
H    -1.895925    1.440851    0.103444    0.542800    0.115713   -0.005572
H    -2.558395   -1.740100    0.687542    0.490181   -0.415422   -0.092481
13
* Frequency(12)  542.2658
C     1.357086    0.557499   -0.061165    0.142506   -0.092127   -0.005925
C     1.284304   -0.754715    0.142542   -0.451083   -0.097255    0.069511
N    -0.042678   -1.210147    0.329209   -0.285508   -0.201731    0.108621
C    -1.156757   -0.446124    0.330329   -0.066934   -0.003319    0.017456
N    -1.091258    0.865103    0.133308    0.423752   -0.042716   -0.064619
C     0.162893    1.370586   -0.068388    0.474586    0.411799   -0.127352
O    -2.401891   -0.760535    0.500109    0.035404   -0.346576    0.061164
O     0.409455    2.543284   -0.279645   -0.274159    0.502404   -0.040258
H     2.079484   -1.500039    0.190840   -0.489840   -0.136639    0.040922
H    -0.164288   -2.185275    0.634619   -0.352249   -0.285581   -0.425592
H     2.273546    1.165397   -0.243018    0.497082   -0.965283    0.091268
H    -1.945278    1.430330    0.103951    0.542800    0.115713   -0.005572
H    -2.602963   -1.702329    0.695950    0.490181   -0.415422   -0.092481
13
* Frequency(12)  542.2658
C     1.348105    0.563304   -0.060791    0.142506   -0.092127   -0.005925
C     1.312730   -0.748586    0.138161   -0.451083   -0.097255    0.069511
N    -0.024686   -1.197435    0.322364   -0.285508   -0.201731    0.108621
C    -1.152539   -0.445915    0.329229   -0.066934   -0.003319    0.017456
N    -1.117962    0.867795    0.137380    0.423752   -0.042716   -0.064619
C     0.132986    1.344636   -0.060363    0.474586    0.411799   -0.127352
O    -2.404122   -0.738695    0.496255    0.035404   -0.346576    0.061164
O     0.426732    2.511624   -0.277108   -0.274159    0.502404   -0.040258
H     2.110352   -1.491428    0.188262   -0.489840   -0.136639    0.040922
H    -0.142090   -2.167279    0.661439   -0.352249   -0.285581   -0.425592
H     2.242222    1.226227   -0.248770    0.497082   -0.965283    0.091268
H    -1.979483    1.423038    0.104302    0.542800    0.115713   -0.005572
H    -2.633853   -1.676150    0.701778    0.490181   -0.415422   -0.092481
13
* Frequency(12)  542.2658
C     1.344075    0.565910   -0.060624    0.142506   -0.092127   -0.005925
C     1.325488   -0.745836    0.136195   -0.451083   -0.097255    0.069511
N    -0.016610   -1.191729    0.319292   -0.285508   -0.201731    0.108621
C    -1.150646   -0.445821    0.328735   -0.066934   -0.003319    0.017456
N    -1.129947    0.869003    0.139208    0.423752   -0.042716   -0.064619
C     0.119562    1.332988   -0.056761    0.474586    0.411799   -0.127352
O    -2.405123   -0.728892    0.494525    0.035404   -0.346576    0.061164
O     0.434486    2.497414   -0.275970   -0.274159    0.502404   -0.040258
H     2.124207   -1.487564    0.187104   -0.489840   -0.136639    0.040922
H    -0.132127   -2.159201    0.673476   -0.352249   -0.285581   -0.425592
H     2.228162    1.253529   -0.251351    0.497082   -0.965283    0.091268
H    -1.994836    1.419765    0.104459    0.542800    0.115713   -0.005572
H    -2.647717   -1.664401    0.704394    0.490181   -0.415422   -0.092481
13
* Frequency(12)  542.2658
C     1.345431    0.565034   -0.060680    0.142506   -0.092127   -0.005925
C     1.321196   -0.746761    0.136857   -0.451083   -0.097255    0.069511
N    -0.019327   -1.193648    0.320325   -0.285508   -0.201731    0.108621
C    -1.151283   -0.445853    0.328902   -0.066934   -0.003319    0.017456
N    -1.125916    0.868597    0.138593    0.423752   -0.042716   -0.064619
C     0.124078    1.336906   -0.057972    0.474586    0.411799   -0.127352
O    -2.404787   -0.732190    0.495107    0.035404   -0.346576    0.061164
O     0.431878    2.502194   -0.276353   -0.274159    0.502404   -0.040258
H     2.119546   -1.488864    0.187493   -0.489840   -0.136639    0.040922
H    -0.135479   -2.161918    0.669427   -0.352249   -0.285581   -0.425592
H     2.232892    1.244344   -0.250483    0.497082   -0.965283    0.091268
H    -1.989671    1.420866    0.104406    0.542800    0.115713   -0.005572
H    -2.643054   -1.668353    0.703514    0.490181   -0.415422   -0.092481
13
* Frequency(12)  542.2658
C     1.352026    0.560770   -0.060954    0.142506   -0.092127   -0.005925
C     1.300319   -0.751262    0.140074   -0.451083   -0.097255    0.069511
N    -0.032541   -1.202985    0.325353   -0.285508   -0.201731    0.108621
C    -1.154380   -0.446006    0.329709   -0.066934   -0.003319    0.017456
N    -1.106304    0.866620    0.135603    0.423752   -0.042716   -0.064619
C     0.146043    1.355965   -0.063866    0.474586    0.411799   -0.127352
O    -2.403148   -0.748230    0.497937    0.035404   -0.346576    0.061164
O     0.419189    2.525446   -0.278216   -0.274159    0.502404   -0.040258
H     2.096876   -1.495188    0.189387   -0.489840   -0.136639    0.040922
H    -0.151781   -2.175136    0.649730   -0.352249   -0.285581   -0.425592
H     2.255897    1.199669   -0.246259    0.497082   -0.965283    0.091268
H    -1.964550    1.426221    0.104148    0.542800    0.115713   -0.005572
H    -2.620367   -1.687580    0.699234    0.490181   -0.415422   -0.092481
13
* Frequency(12)  542.2658
C     1.363146    0.553581   -0.061417    0.142506   -0.092127   -0.005925
C     1.265120   -0.758851    0.145498   -0.451083   -0.097255    0.069511
N    -0.054820   -1.218727    0.333829   -0.285508   -0.201731    0.108621
C    -1.159604   -0.446265    0.331072   -0.066934   -0.003319    0.017456
N    -1.073237    0.863287    0.130560    0.423752   -0.042716   -0.064619
C     0.183076    1.388099   -0.073804    0.474586    0.411799   -0.127352
O    -2.400385   -0.775274    0.502710    0.035404   -0.346576    0.061164
O     0.397795    2.564650   -0.281357   -0.274159    0.502404   -0.040258
H     2.058651   -1.505850    0.192581   -0.489840   -0.136639    0.040922
H    -0.179269   -2.197421    0.616519   -0.352249   -0.285581   -0.425592
H     2.294687    1.124345   -0.239137    0.497082   -0.965283    0.091268
H    -1.922193    1.435251    0.103714    0.542800    0.115713   -0.005572
H    -2.582116   -1.719996    0.692017    0.490181   -0.415422   -0.092481
13
* Frequency(12)  542.2658
C     1.377586    0.544246   -0.062017    0.142506   -0.092127   -0.005925
C     1.219412   -0.768706    0.152542   -0.451083   -0.097255    0.069511
N    -0.083750   -1.239168    0.344835   -0.285508   -0.201731    0.108621
C    -1.166386   -0.446602    0.332840   -0.066934   -0.003319    0.017456
N    -1.030298    0.858958    0.124012    0.423752   -0.042716   -0.064619
C     0.231166    1.429827   -0.086709    0.474586    0.411799   -0.127352
O    -2.396798   -0.810393    0.508908    0.035404   -0.346576    0.061164
O     0.370015    2.615559   -0.285437   -0.274159    0.502404   -0.040258
H     2.009016   -1.519696    0.196727   -0.489840   -0.136639    0.040922
H    -0.214962   -2.226359    0.573394   -0.352249   -0.285581   -0.425592
H     2.345056    1.026533   -0.229889    0.497082   -0.965283    0.091268
H    -1.867191    1.446976    0.103149    0.542800    0.115713   -0.005572
H    -2.532446   -1.762091    0.682646    0.490181   -0.415422   -0.092481
13
* Frequency(12)  542.2658
C     1.393781    0.533776   -0.062691    0.142506   -0.092127   -0.005925
C     1.168148   -0.779758    0.160441   -0.451083   -0.097255    0.069511
N    -0.116197   -1.262094    0.357179   -0.285508   -0.201731    0.108621
C    -1.173993   -0.446979    0.334824   -0.066934   -0.003319    0.017456
N    -0.982141    0.854104    0.116669    0.423752   -0.042716   -0.064619
C     0.285100    1.476626   -0.101181    0.474586    0.411799   -0.127352
O    -2.392774   -0.849779    0.515859    0.035404   -0.346576    0.061164
O     0.338858    2.672655   -0.290012   -0.274159    0.502404   -0.040258
H     1.953348   -1.535224    0.201378   -0.489840   -0.136639    0.040922
H    -0.254993   -2.258813    0.525028   -0.352249   -0.285581   -0.425592
H     2.401547    0.916834   -0.219517    0.497082   -0.965283    0.091268
H    -1.805505    1.460126    0.102516    0.542800    0.115713   -0.005572
H    -2.476740   -1.809302    0.672136    0.490181   -0.415422   -0.092481
