13
* (null), Energy   -1000.0000000
C     1.646520    0.274089   -0.194207    0.126816   -0.009233   -0.009517
C     1.420577   -1.039677    0.025063    0.161513    0.111098   -0.031083
N     0.135453   -1.525757    0.216409   -0.160284    0.007654    0.013633
C    -0.924794   -0.711788    0.195329    0.019633   -0.057320    0.008364
N    -0.732121    0.590004   -0.024536    0.176395    0.013334   -0.019065
C     0.536344    1.216046   -0.237856   -0.482599    0.005153    0.042246
O    -2.146146   -1.110315    0.377217   -0.044338    0.002738    0.002717
O     0.589994    2.411153   -0.425909    0.062828    0.014597   -0.007868
H     2.206629   -1.794809    0.067952    0.386980    0.344753   -0.089554
H     0.004335   -2.526891    0.371768   -0.324502    0.032714    0.020581
H     2.655430    0.658119   -0.342686    0.743858   -1.526553    0.167357
H    -1.554927    1.198215   -0.034522    0.221221    0.061426   -0.026213
H    -2.238862   -2.064583    0.566301    0.536023   -0.071309   -0.034219
13
* Frequency(25) 1220.0294
C     1.660932    0.273039   -0.195289    0.126816   -0.009233   -0.009517
C     1.438932   -1.027051    0.021531    0.161513    0.111098   -0.031083
N     0.117238   -1.524887    0.217958   -0.160284    0.007654    0.013633
C    -0.922563   -0.718302    0.196279    0.019633   -0.057320    0.008364
N    -0.712075    0.591520   -0.026703    0.176395    0.013334   -0.019065
C     0.481499    1.216631   -0.233055   -0.482599    0.005153    0.042246
O    -2.151185   -1.110003    0.377526   -0.044338    0.002738    0.002717
O     0.597134    2.412812   -0.426804    0.062828    0.014597   -0.007868
H     2.250607   -1.755630    0.057774    0.386980    0.344753   -0.089554
H    -0.032543   -2.523173    0.374107   -0.324502    0.032714    0.020581
H     2.739966    0.484634   -0.323667    0.743858   -1.526553    0.167357
H    -1.529786    1.205196   -0.037501    0.221221    0.061426   -0.026213
H    -2.177946   -2.072687    0.562413    0.536023   -0.071309   -0.034219
13
* Frequency(25) 1220.0294
C     1.673782    0.272104   -0.196253    0.126816   -0.009233   -0.009517
C     1.455298   -1.015794    0.018381    0.161513    0.111098   -0.031083
N     0.100996   -1.524111    0.219340   -0.160284    0.007654    0.013633
C    -0.920574   -0.724110    0.197127    0.019633   -0.057320    0.008364
N    -0.694201    0.592871   -0.028635    0.176395    0.013334   -0.019065
C     0.432597    1.217153   -0.228774   -0.482599    0.005153    0.042246
O    -2.155678   -1.109726    0.377802   -0.044338    0.002738    0.002717
O     0.603500    2.414291   -0.427601    0.062828    0.014597   -0.007868
H     2.289820   -1.720696    0.048700    0.386980    0.344753   -0.089554
H    -0.065424   -2.519858    0.376192   -0.324502    0.032714    0.020581
H     2.815340    0.329949   -0.306708    0.743858   -1.526553    0.167357
H    -1.507370    1.211420   -0.040157    0.221221    0.061426   -0.026213
H    -2.123631   -2.079912    0.558945    0.536023   -0.071309   -0.034219
13
* Frequency(25) 1220.0294
C     1.683678    0.271383   -0.196996    0.126816   -0.009233   -0.009517
C     1.467901   -1.007124    0.015956    0.161513    0.111098   -0.031083
N     0.088488   -1.523514    0.220404   -0.160284    0.007654    0.013633
C    -0.919042   -0.728583    0.197779    0.019633   -0.057320    0.008364
N    -0.680436    0.593911   -0.030122    0.176395    0.013334   -0.019065
C     0.394938    1.217555   -0.225478   -0.482599    0.005153    0.042246
O    -2.159137   -1.109512    0.378014   -0.044338    0.002738    0.002717
O     0.608403    2.415430   -0.428215    0.062828    0.014597   -0.007868
H     2.320017   -1.693794    0.041712    0.386980    0.344753   -0.089554
H    -0.090747   -2.517305    0.377798   -0.324502    0.032714    0.020581
H     2.873386    0.210826   -0.293649    0.743858   -1.526553    0.167357
H    -1.490107    1.216213   -0.042203    0.221221    0.061426   -0.026213
H    -2.081803   -2.085477    0.556275    0.536023   -0.071309   -0.034219
13
* Frequency(25) 1220.0294
C     1.689547    0.270956   -0.197436    0.126816   -0.009233   -0.009517
C     1.475376   -1.001983    0.014517    0.161513    0.111098   -0.031083
N     0.081070   -1.523160    0.221035   -0.160284    0.007654    0.013633
C    -0.918133   -0.731236    0.198167    0.019633   -0.057320    0.008364
N    -0.672272    0.594528   -0.031005    0.176395    0.013334   -0.019065
C     0.372603    1.217794   -0.223522   -0.482599    0.005153    0.042246
O    -2.161190   -1.109386    0.378139   -0.044338    0.002738    0.002717
O     0.611311    2.416106   -0.428579    0.062828    0.014597   -0.007868
H     2.337928   -1.677838    0.037567    0.386980    0.344753   -0.089554
H    -0.105765   -2.515791    0.378751   -0.324502    0.032714    0.020581
H     2.907814    0.140174   -0.285903    0.743858   -1.526553    0.167357
H    -1.479869    1.219056   -0.043416    0.221221    0.061426   -0.026213
H    -2.056995   -2.088777    0.554691    0.536023   -0.071309   -0.034219
13
* Frequency(25) 1220.0294
C     1.690754    0.270868   -0.197527    0.126816   -0.009233   -0.009517
C     1.476913   -1.000926    0.014222    0.161513    0.111098   -0.031083
N     0.079545   -1.523087    0.221164   -0.160284    0.007654    0.013633
C    -0.917946   -0.731781    0.198246    0.019633   -0.057320    0.008364
N    -0.670594    0.594655   -0.031186    0.176395    0.013334   -0.019065
C     0.368011    1.217843   -0.223121   -0.482599    0.005153    0.042246
O    -2.161611   -1.109359    0.378165   -0.044338    0.002738    0.002717
O     0.611908    2.416244   -0.428654    0.062828    0.014597   -0.007868
H     2.341609   -1.674558    0.036715    0.386980    0.344753   -0.089554
H    -0.108853   -2.515480    0.378947   -0.324502    0.032714    0.020581
H     2.914891    0.125650   -0.284311    0.743858   -1.526553    0.167357
H    -1.477764    1.219641   -0.043666    0.221221    0.061426   -0.026213
H    -2.051895   -2.089456    0.554366    0.536023   -0.071309   -0.034219
13
* Frequency(25) 1220.0294
C     1.687167    0.271129   -0.197257    0.126816   -0.009233   -0.009517
C     1.472345   -1.004068    0.015101    0.161513    0.111098   -0.031083
N     0.084079   -1.523303    0.220779   -0.160284    0.007654    0.013633
C    -0.918501   -0.730160    0.198010    0.019633   -0.057320    0.008364
N    -0.675583    0.594278   -0.030647    0.176395    0.013334   -0.019065
C     0.381661    1.217697   -0.224315   -0.482599    0.005153    0.042246
O    -2.160357   -1.109437    0.378088   -0.044338    0.002738    0.002717
O     0.610131    2.415832   -0.428431    0.062828    0.014597   -0.007868
H     2.330664   -1.684309    0.039248    0.386980    0.344753   -0.089554
H    -0.099674   -2.516405    0.378364   -0.324502    0.032714    0.020581
H     2.893852    0.168827   -0.289044    0.743858   -1.526553    0.167357
H    -1.484021    1.217903   -0.042924    0.221221    0.061426   -0.026213
H    -2.067056   -2.087439    0.555334    0.536023   -0.071309   -0.034219
13
* Frequency(25) 1220.0294
C     1.679176    0.271711   -0.196658    0.126816   -0.009233   -0.009517
C     1.462167   -1.011069    0.017060    0.161513    0.111098   -0.031083
N     0.094179   -1.523786    0.219920   -0.160284    0.007654    0.013633
C    -0.919739   -0.726548    0.197482    0.019633   -0.057320    0.008364
N    -0.686699    0.593438   -0.029446    0.176395    0.013334   -0.019065
C     0.412073    1.217372   -0.226978   -0.482599    0.005153    0.042246
O    -2.157563   -1.109609    0.377917   -0.044338    0.002738    0.002717
O     0.606172    2.414912   -0.427935    0.062828    0.014597   -0.007868
H     2.306278   -1.706034    0.044891    0.386980    0.344753   -0.089554
H    -0.079225   -2.518467    0.377068   -0.324502    0.032714    0.020581
H     2.846976    0.265026   -0.299591    0.743858   -1.526553    0.167357
H    -1.497962    1.214032   -0.041272    0.221221    0.061426   -0.026213
H    -2.100835   -2.082945    0.557490    0.536023   -0.071309   -0.034219
13
* Frequency(25) 1220.0294
C     1.667645    0.272551   -0.195792    0.126816   -0.009233   -0.009517
C     1.447482   -1.021170    0.019886    0.161513    0.111098   -0.031083
N     0.108753   -1.524482    0.218680   -0.160284    0.007654    0.013633
C    -0.921524   -0.721336    0.196722    0.019633   -0.057320    0.008364
N    -0.702737    0.592225   -0.027712    0.176395    0.013334   -0.019065
C     0.455952    1.216904   -0.230819   -0.482599    0.005153    0.042246
O    -2.153532   -1.109858    0.377670   -0.044338    0.002738    0.002717
O     0.600460    2.413584   -0.427220    0.062828    0.014597   -0.007868
H     2.271093   -1.737380    0.053034    0.386980    0.344753   -0.089554
H    -0.049721   -2.521441    0.375196   -0.324502    0.032714    0.020581
H     2.779343    0.403823   -0.314807    0.743858   -1.526553    0.167357
H    -1.518076    1.208447   -0.038889    0.221221    0.061426   -0.026213
H    -2.149571   -2.076461    0.560601    0.536023   -0.071309   -0.034219
13
* Frequency(25) 1220.0294
C     1.653826    0.273557   -0.194755    0.126816   -0.009233   -0.009517
C     1.429881   -1.033277    0.023273    0.161513    0.111098   -0.031083
N     0.126219   -1.525316    0.217194   -0.160284    0.007654    0.013633
C    -0.923663   -0.715090    0.195811    0.019633   -0.057320    0.008364
N    -0.721959    0.590772   -0.025635    0.176395    0.013334   -0.019065
C     0.508542    1.216342   -0.235422   -0.482599    0.005153    0.042246
O    -2.148700   -1.110157    0.377374   -0.044338    0.002738    0.002717
O     0.593613    2.411994   -0.426363    0.062828    0.014597   -0.007868
H     2.228922   -1.774948    0.062793    0.386980    0.344753   -0.089554
H    -0.014359   -2.525006    0.372954   -0.324502    0.032714    0.020581
H     2.698282    0.570177   -0.333045    0.743858   -1.526553    0.167357
H    -1.542183    1.201754   -0.036032    0.221221    0.061426   -0.026213
H    -2.207983   -2.068691    0.564330    0.536023   -0.071309   -0.034219
13
* Frequency(25) 1220.0294
C     1.639214    0.274621   -0.193659    0.126816   -0.009233   -0.009517
C     1.411272   -1.046077    0.026854    0.161513    0.111098   -0.031083
N     0.144687   -1.526198    0.215623   -0.160284    0.007654    0.013633
C    -0.925925   -0.708485    0.194847    0.019633   -0.057320    0.008364
N    -0.742283    0.589236   -0.023438    0.176395    0.013334   -0.019065
C     0.564146    1.215749   -0.240290   -0.482599    0.005153    0.042246
O    -2.143592   -1.110472    0.377061   -0.044338    0.002738    0.002717
O     0.586374    2.410312   -0.425456    0.062828    0.014597   -0.007868
H     2.184336   -1.814670    0.073111    0.386980    0.344753   -0.089554
H     0.023029   -2.528775    0.370582   -0.324502    0.032714    0.020581
H     2.612578    0.746060   -0.352327    0.743858   -1.526553    0.167357
H    -1.567671    1.194676   -0.033012    0.221221    0.061426   -0.026213
H    -2.269742   -2.060475    0.568273    0.536023   -0.071309   -0.034219
13
* Frequency(25) 1220.0294
C     1.625395    0.275627   -0.192622    0.126816   -0.009233   -0.009517
C     1.393672   -1.058184    0.030241    0.161513    0.111098   -0.031083
N     0.162153   -1.527032    0.214138   -0.160284    0.007654    0.013633
C    -0.928064   -0.702239    0.193935    0.019633   -0.057320    0.008364
N    -0.761505    0.587783   -0.021361    0.176395    0.013334   -0.019065
C     0.616736    1.215187   -0.244893   -0.482599    0.005153    0.042246
O    -2.138760   -1.110771    0.376765   -0.044338    0.002738    0.002717
O     0.579528    2.408721   -0.424599    0.062828    0.014597   -0.007868
H     2.142166   -1.852238    0.082870    0.386980    0.344753   -0.089554
H     0.058391   -2.532340    0.368340   -0.324502    0.032714    0.020581
H     2.531517    0.912414   -0.370565    0.743858   -1.526553    0.167357
H    -1.591778    1.187983   -0.030156    0.221221    0.061426   -0.026213
H    -2.328154   -2.052704    0.572002    0.536023   -0.071309   -0.034219
13
* Frequency(25) 1220.0294
C     1.613865    0.276466   -0.191757    0.126816   -0.009233   -0.009517
C     1.378987   -1.068285    0.033067    0.161513    0.111098   -0.031083
N     0.176727   -1.527728    0.212898   -0.160284    0.007654    0.013633
C    -0.929849   -0.697027    0.193175    0.019633   -0.057320    0.008364
N    -0.777544    0.586571   -0.019627    0.176395    0.013334   -0.019065
C     0.660615    1.214719   -0.248734   -0.482599    0.005153    0.042246
O    -2.134729   -1.111020    0.376518   -0.044338    0.002738    0.002717
O     0.573815    2.407394   -0.423883    0.062828    0.014597   -0.007868
H     2.106981   -1.883584    0.091012    0.386980    0.344753   -0.089554
H     0.087896   -2.535315    0.366468   -0.324502    0.032714    0.020581
H     2.463884    1.051211   -0.385781    0.743858   -1.526553    0.167357
H    -1.611892    1.182398   -0.027772    0.221221    0.061426   -0.026213
H    -2.376890   -2.046220    0.575113    0.536023   -0.071309   -0.034219
13
* Frequency(25) 1220.0294
C     1.605873    0.277048   -0.191157    0.126816   -0.009233   -0.009517
C     1.368808   -1.075286    0.035026    0.161513    0.111098   -0.031083
N     0.186827   -1.528210    0.212039   -0.160284    0.007654    0.013633
C    -0.931087   -0.693415    0.192648    0.019633   -0.057320    0.008364
N    -0.788659    0.585730   -0.018426    0.176395    0.013334   -0.019065
C     0.691027    1.214394   -0.251397   -0.482599    0.005153    0.042246
O    -2.131935   -1.111192    0.376346   -0.044338    0.002738    0.002717
O     0.569856    2.406474   -0.423387    0.062828    0.014597   -0.007868
H     2.082594   -1.905309    0.096656    0.386980    0.344753   -0.089554
H     0.108345   -2.537376    0.365172   -0.324502    0.032714    0.020581
H     2.417008    1.147411   -0.396328    0.743858   -1.526553    0.167357
H    -1.625833    1.178527   -0.026121    0.221221    0.061426   -0.026213
H    -2.410669   -2.041726    0.577269    0.536023   -0.071309   -0.034219
13
* Frequency(25) 1220.0294
C     1.602286    0.277309   -0.190888    0.126816   -0.009233   -0.009517
C     1.364240   -1.078429    0.035905    0.161513    0.111098   -0.031083
N     0.191361   -1.528427    0.211654   -0.160284    0.007654    0.013633
C    -0.931642   -0.691794    0.192411    0.019633   -0.057320    0.008364
N    -0.793649    0.585353   -0.017887    0.176395    0.013334   -0.019065
C     0.704677    1.214248   -0.252591   -0.482599    0.005153    0.042246
O    -2.130681   -1.111270    0.376270   -0.044338    0.002738    0.002717
O     0.568079    2.406061   -0.423165    0.062828    0.014597   -0.007868
H     2.071649   -1.915060    0.099189    0.386980    0.344753   -0.089554
H     0.117523   -2.538302    0.364589   -0.324502    0.032714    0.020581
H     2.395969    1.190587   -0.401061    0.743858   -1.526553    0.167357
H    -1.632090    1.176789   -0.025379    0.221221    0.061426   -0.026213
H    -2.425830   -2.039710    0.578237    0.536023   -0.071309   -0.034219
13
* Frequency(25) 1220.0294
C     1.603493    0.277222   -0.190978    0.126816   -0.009233   -0.009517
C     1.365777   -1.077372    0.035609    0.161513    0.111098   -0.031083
N     0.189836   -1.528354    0.211783   -0.160284    0.007654    0.013633
C    -0.931455   -0.692339    0.192491    0.019633   -0.057320    0.008364
N    -0.791970    0.585480   -0.018068    0.176395    0.013334   -0.019065
C     0.700085    1.214297   -0.252190   -0.482599    0.005153    0.042246
O    -2.131103   -1.111244    0.376295   -0.044338    0.002738    0.002717
O     0.568677    2.406200   -0.423240    0.062828    0.014597   -0.007868
H     2.075331   -1.911780    0.098337    0.386980    0.344753   -0.089554
H     0.114436   -2.537990    0.364785   -0.324502    0.032714    0.020581
H     2.403046    1.176063   -0.399469    0.743858   -1.526553    0.167357
H    -1.629985    1.177374   -0.025629    0.221221    0.061426   -0.026213
H    -2.420730   -2.040388    0.577912    0.536023   -0.071309   -0.034219
13
* Frequency(25) 1220.0294
C     1.609362    0.276794   -0.191419    0.126816   -0.009233   -0.009517
C     1.373252   -1.072230    0.034171    0.161513    0.111098   -0.031083
N     0.182417   -1.527999    0.212414   -0.160284    0.007654    0.013633
C    -0.930547   -0.694992    0.192878    0.019633   -0.057320    0.008364
N    -0.783806    0.586097   -0.018950    0.176395    0.013334   -0.019065
C     0.677750    1.214536   -0.250234   -0.482599    0.005153    0.042246
O    -2.133155   -1.111117    0.376421   -0.044338    0.002738    0.002717
O     0.571585    2.406876   -0.423604    0.062828    0.014597   -0.007868
H     2.093241   -1.895824    0.094192    0.386980    0.344753   -0.089554
H     0.099417   -2.536476    0.365738   -0.324502    0.032714    0.020581
H     2.437473    1.105411   -0.391723    0.743858   -1.526553    0.167357
H    -1.619747    1.180217   -0.026842    0.221221    0.061426   -0.026213
H    -2.395922   -2.043688    0.576328    0.536023   -0.071309   -0.034219
13
* Frequency(25) 1220.0294
C     1.619258    0.276074   -0.192161    0.126816   -0.009233   -0.009517
C     1.385856   -1.063560    0.031745    0.161513    0.111098   -0.031083
N     0.169910   -1.527402    0.213478   -0.160284    0.007654    0.013633
C    -0.929015   -0.699465    0.193531    0.019633   -0.057320    0.008364
N    -0.770042    0.587138   -0.020438    0.176395    0.013334   -0.019065
C     0.640090    1.214938   -0.246938   -0.482599    0.005153    0.042246
O    -2.136615   -1.110903    0.376633   -0.044338    0.002738    0.002717
O     0.576487    2.408015   -0.424218    0.062828    0.014597   -0.007868
H     2.123439   -1.868922    0.087204    0.386980    0.344753   -0.089554
H     0.074095   -2.533923    0.367344   -0.324502    0.032714    0.020581
H     2.495519    0.986289   -0.378664    0.743858   -1.526553    0.167357
H    -1.602484    1.185010   -0.028887    0.221221    0.061426   -0.026213
H    -2.354094   -2.049253    0.573658    0.536023   -0.071309   -0.034219
13
* Frequency(25) 1220.0294
C     1.632108    0.275138   -0.193126    0.126816   -0.009233   -0.009517
C     1.402222   -1.052303    0.028596    0.161513    0.111098   -0.031083
N     0.153668   -1.526627    0.214860   -0.160284    0.007654    0.013633
C    -0.927025   -0.705273    0.194378    0.019633   -0.057320    0.008364
N    -0.752168    0.588489   -0.022370    0.176395    0.013334   -0.019065
C     0.591189    1.215460   -0.242657   -0.482599    0.005153    0.042246
O    -2.141107   -1.110626    0.376909   -0.044338    0.002738    0.002717
O     0.582854    2.409494   -0.425015    0.062828    0.014597   -0.007868
H     2.162651   -1.833988    0.078129    0.386980    0.344753   -0.089554
H     0.041213   -2.530608    0.369429   -0.324502    0.032714    0.020581
H     2.570894    0.831603   -0.361705    0.743858   -1.526553    0.167357
H    -1.580068    1.191234   -0.031543    0.221221    0.061426   -0.026213
H    -2.299779   -2.056479    0.570190    0.536023   -0.071309   -0.034219
13
* Frequency(25) 1220.0294
C     1.646520    0.274089   -0.194207    0.126816   -0.009233   -0.009517
C     1.420577   -1.039677    0.025063    0.161513    0.111098   -0.031083
N     0.135453   -1.525757    0.216409   -0.160284    0.007654    0.013633
C    -0.924794   -0.711788    0.195329    0.019633   -0.057320    0.008364
N    -0.732121    0.590004   -0.024536    0.176395    0.013334   -0.019065
C     0.536344    1.216046   -0.237856   -0.482599    0.005153    0.042246
O    -2.146146   -1.110315    0.377217   -0.044338    0.002738    0.002717
O     0.589994    2.411153   -0.425909    0.062828    0.014597   -0.007868
H     2.206629   -1.794809    0.067952    0.386980    0.344753   -0.089554
H     0.004335   -2.526891    0.371768   -0.324502    0.032714    0.020581
H     2.655430    0.658119   -0.342686    0.743858   -1.526553    0.167357
H    -1.554927    1.198215   -0.034522    0.221221    0.061426   -0.026213
H    -2.238862   -2.064583    0.566301    0.536023   -0.071309   -0.034219
