13
* (null), Energy   -1000.0000000
C     1.393781    0.533776   -0.062691   -0.000775   -0.000066    0.000081
C     1.168148   -0.779758    0.160441    0.001312    0.001014   -0.000294
N    -0.116197   -1.262094    0.357179   -0.005046   -0.021399    0.003809
C    -1.173993   -0.446979    0.334824   -0.001033    0.002635   -0.000249
N    -0.982141    0.854104    0.116669    0.116933   -0.089077    0.002438
C     0.285100    1.476626   -0.101181   -0.001647    0.001374   -0.000052
O    -2.392774   -0.849779    0.515859    0.000679   -0.000695    0.000017
O     0.338858    2.672655   -0.290012    0.000251   -0.000673    0.000082
H     1.953348   -1.535224    0.201378   -0.001046    0.000865   -0.000055
H    -0.254993   -2.258813    0.525028    0.041219    0.312230   -0.052256
H     2.401547    0.916834   -0.219517   -0.002330    0.000978    0.000077
H    -1.805505    1.460126    0.102516   -1.582220    1.171145   -0.027988
H    -2.476740   -1.809302    0.672136    0.000397    0.012589   -0.002019
13
* Frequency(36) 3539.3007
C     1.393693    0.533768   -0.062681   -0.000775   -0.000066    0.000081
C     1.168297   -0.779643    0.160408    0.001312    0.001014   -0.000294
N    -0.116770   -1.264526    0.357612   -0.005046   -0.021399    0.003809
C    -1.174110   -0.446680    0.334796   -0.001033    0.002635   -0.000249
N    -0.968852    0.843981    0.116946    0.116933   -0.089077    0.002438
C     0.284913    1.476782   -0.101187   -0.001647    0.001374   -0.000052
O    -2.392697   -0.849858    0.515861    0.000679   -0.000695    0.000017
O     0.338887    2.672578   -0.290003    0.000251   -0.000673    0.000082
H     1.953229   -1.535126    0.201372   -0.001046    0.000865   -0.000055
H    -0.250309   -2.223330    0.519089    0.041219    0.312230   -0.052256
H     2.401282    0.916945   -0.219508   -0.002330    0.000978    0.000077
H    -1.985316    1.593221    0.099335   -1.582220    1.171145   -0.027988
H    -2.476695   -1.807871    0.671907    0.000397    0.012589   -0.002019
13
* Frequency(36) 3539.3007
C     1.393615    0.533762   -0.062673   -0.000775   -0.000066    0.000081
C     1.168430   -0.779540    0.160378    0.001312    0.001014   -0.000294
N    -0.117282   -1.266694    0.357998   -0.005046   -0.021399    0.003809
C    -1.174215   -0.446413    0.334771   -0.001033    0.002635   -0.000249
N    -0.957003    0.834954    0.117193    0.116933   -0.089077    0.002438
C     0.284746    1.476921   -0.101193   -0.001647    0.001374   -0.000052
O    -2.392628   -0.849929    0.515863    0.000679   -0.000695    0.000017
O     0.338912    2.672510   -0.289994    0.000251   -0.000673    0.000082
H     1.953123   -1.535038    0.201366   -0.001046    0.000865   -0.000055
H    -0.246132   -2.191692    0.513794    0.041219    0.312230   -0.052256
H     2.401046    0.917044   -0.219500   -0.002330    0.000978    0.000077
H    -2.145642    1.711893    0.096499   -1.582220    1.171145   -0.027988
H    -2.476655   -1.806595    0.671702    0.000397    0.012589   -0.002019
13
* Frequency(36) 3539.3007
C     1.393554    0.533757   -0.062667   -0.000775   -0.000066    0.000081
C     1.168533   -0.779461    0.160355    0.001312    0.001014   -0.000294
N    -0.117675   -1.268364    0.358295   -0.005046   -0.021399    0.003809
C    -1.174296   -0.446207    0.334751   -0.001033    0.002635   -0.000249
N    -0.947878    0.828003    0.117383    0.116933   -0.089077    0.002438
C     0.284617    1.477028   -0.101197   -0.001647    0.001374   -0.000052
O    -2.392575   -0.849983    0.515864    0.000679   -0.000695    0.000017
O     0.338932    2.672457   -0.289988    0.000251   -0.000673    0.000082
H     1.953042   -1.534971    0.201362   -0.001046    0.000865   -0.000055
H    -0.242916   -2.167327    0.509717    0.041219    0.312230   -0.052256
H     2.400864    0.917120   -0.219494   -0.002330    0.000978    0.000077
H    -2.269108    1.803281    0.094315   -1.582220    1.171145   -0.027988
H    -2.476624   -1.805613    0.671545    0.000397    0.012589   -0.002019
13
* Frequency(36) 3539.3007
C     1.393518    0.533753   -0.062663   -0.000775   -0.000066    0.000081
C     1.168593   -0.779414    0.160341    0.001312    0.001014   -0.000294
N    -0.117909   -1.269354    0.358472   -0.005046   -0.021399    0.003809
C    -1.174343   -0.446085    0.334740   -0.001033    0.002635   -0.000249
N    -0.942467    0.823881    0.117496    0.116933   -0.089077    0.002438
C     0.284541    1.477092   -0.101199   -0.001647    0.001374   -0.000052
O    -2.392544   -0.850015    0.515865    0.000679   -0.000695    0.000017
O     0.338943    2.672426   -0.289984    0.000251   -0.000673    0.000082
H     1.952993   -1.534931    0.201359   -0.001046    0.000865   -0.000055
H    -0.241008   -2.152877    0.507298    0.041219    0.312230   -0.052256
H     2.400756    0.917165   -0.219490   -0.002330    0.000978    0.000077
H    -2.342336    1.857484    0.093020   -1.582220    1.171145   -0.027988
H    -2.476605   -1.805030    0.671451    0.000397    0.012589   -0.002019
13
* Frequency(36) 3539.3007
C     1.393511    0.533753   -0.062662   -0.000775   -0.000066    0.000081
C     1.168606   -0.779405    0.160339    0.001312    0.001014   -0.000294
N    -0.117957   -1.269558    0.358508   -0.005046   -0.021399    0.003809
C    -1.174353   -0.446060    0.334737   -0.001033    0.002635   -0.000249
N    -0.941354    0.823033    0.117519    0.116933   -0.089077    0.002438
C     0.284526    1.477105   -0.101200   -0.001647    0.001374   -0.000052
O    -2.392537   -0.850022    0.515865    0.000679   -0.000695    0.000017
O     0.338946    2.672420   -0.289983    0.000251   -0.000673    0.000082
H     1.952983   -1.534922    0.201359   -0.001046    0.000865   -0.000055
H    -0.240616   -2.149906    0.506801    0.041219    0.312230   -0.052256
H     2.400734    0.917175   -0.219490   -0.002330    0.000978    0.000077
H    -2.357390    1.868627    0.092753   -1.582220    1.171145   -0.027988
H    -2.476602   -1.804910    0.671432    0.000397    0.012589   -0.002019
13
* Frequency(36) 3539.3007
C     1.393533    0.533755   -0.062665   -0.000775   -0.000066    0.000081
C     1.168569   -0.779433    0.160347    0.001312    0.001014   -0.000294
N    -0.117814   -1.268953    0.358400   -0.005046   -0.021399    0.003809
C    -1.174324   -0.446134    0.334744   -0.001033    0.002635   -0.000249
N    -0.944661    0.825553    0.117450    0.116933   -0.089077    0.002438
C     0.284572    1.477066   -0.101198   -0.001647    0.001374   -0.000052
O    -2.392557   -0.850002    0.515864    0.000679   -0.000695    0.000017
O     0.338939    2.672439   -0.289986    0.000251   -0.000673    0.000082
H     1.953013   -1.534947    0.201360   -0.001046    0.000865   -0.000055
H    -0.241782   -2.158737    0.508279    0.041219    0.312230   -0.052256
H     2.400800    0.917147   -0.219492   -0.002330    0.000978    0.000077
H    -2.312639    1.835502    0.093545   -1.582220    1.171145   -0.027988
H    -2.476613   -1.805266    0.671489    0.000397    0.012589   -0.002019
13
* Frequency(36) 3539.3007
C     1.393582    0.533759   -0.062670   -0.000775   -0.000066    0.000081
C     1.168486   -0.779497    0.160365    0.001312    0.001014   -0.000294
N    -0.117496   -1.267604    0.358160   -0.005046   -0.021399    0.003809
C    -1.174259   -0.446300    0.334760   -0.001033    0.002635   -0.000249
N    -0.952030    0.831166    0.117297    0.116933   -0.089077    0.002438
C     0.284676    1.476979   -0.101195   -0.001647    0.001374   -0.000052
O    -2.392599   -0.849958    0.515863    0.000679   -0.000695    0.000017
O     0.338923    2.672481   -0.289991    0.000251   -0.000673    0.000082
H     1.953079   -1.535001    0.201364   -0.001046    0.000865   -0.000055
H    -0.244379   -2.178413    0.511572    0.041219    0.312230   -0.052256
H     2.400946    0.917085   -0.219497   -0.002330    0.000978    0.000077
H    -2.212932    1.761700    0.095309   -1.582220    1.171145   -0.027988
H    -2.476638   -1.806060    0.671616    0.000397    0.012589   -0.002019
13
* Frequency(36) 3539.3007
C     1.393652    0.533765   -0.062677   -0.000775   -0.000066    0.000081
C     1.168367   -0.779590    0.160392    0.001312    0.001014   -0.000294
N    -0.117037   -1.265659    0.357814   -0.005046   -0.021399    0.003809
C    -1.174165   -0.446540    0.334783   -0.001033    0.002635   -0.000249
N    -0.962662    0.839265    0.117075    0.116933   -0.089077    0.002438
C     0.284826    1.476855   -0.101190   -0.001647    0.001374   -0.000052
O    -2.392661   -0.849895    0.515862    0.000679   -0.000695    0.000017
O     0.338900    2.672542   -0.289998    0.000251   -0.000673    0.000082
H     1.953174   -1.535080    0.201369   -0.001046    0.000865   -0.000055
H    -0.248127   -2.206802    0.516323    0.041219    0.312230   -0.052256
H     2.401158    0.916997   -0.219504   -0.002330    0.000978    0.000077
H    -2.069074    1.655217    0.097854   -1.582220    1.171145   -0.027988
H    -2.476674   -1.807204    0.671800    0.000397    0.012589   -0.002019
13
* Frequency(36) 3539.3007
C     1.393737    0.533772   -0.062686   -0.000775   -0.000066    0.000081
C     1.168224   -0.779700    0.160424    0.001312    0.001014   -0.000294
N    -0.116487   -1.263327    0.357399   -0.005046   -0.021399    0.003809
C    -1.174052   -0.446827    0.334810   -0.001033    0.002635   -0.000249
N    -0.975405    0.848972    0.116809    0.116933   -0.089077    0.002438
C     0.285005    1.476705   -0.101184   -0.001647    0.001374   -0.000052
O    -2.392735   -0.849819    0.515860    0.000679   -0.000695    0.000017
O     0.338873    2.672616   -0.290007    0.000251   -0.000673    0.000082
H     1.953288   -1.535174    0.201375   -0.001046    0.000865   -0.000055
H    -0.252619   -2.240826    0.522018    0.041219    0.312230   -0.052256
H     2.401412    0.916890   -0.219512   -0.002330    0.000978    0.000077
H    -1.896654    1.527594    0.100903   -1.582220    1.171145   -0.027988
H    -2.476717   -1.808576    0.672020    0.000397    0.012589   -0.002019
13
* Frequency(36) 3539.3007
C     1.393826    0.533780   -0.062695   -0.000775   -0.000066    0.000081
C     1.168073   -0.779817    0.160458    0.001312    0.001014   -0.000294
N    -0.115906   -1.260861    0.356960   -0.005046   -0.021399    0.003809
C    -1.173933   -0.447131    0.334838   -0.001033    0.002635   -0.000249
N    -0.988877    0.859235    0.116528    0.116933   -0.089077    0.002438
C     0.285195    1.476547   -0.101178   -0.001647    0.001374   -0.000052
O    -2.392813   -0.849739    0.515858    0.000679   -0.000695    0.000017
O     0.338844    2.672693   -0.290017    0.000251   -0.000673    0.000082
H     1.953409   -1.535274    0.201381   -0.001046    0.000865   -0.000055
H    -0.257368   -2.276800    0.528039    0.041219    0.312230   -0.052256
H     2.401681    0.916777   -0.219521   -0.002330    0.000978    0.000077
H    -1.714356    1.392659    0.104128   -1.582220    1.171145   -0.027988
H    -2.476763   -1.810027    0.672252    0.000397    0.012589   -0.002019
13
* Frequency(36) 3539.3007
C     1.393911    0.533787   -0.062704   -0.000775   -0.000066    0.000081
C     1.167930   -0.779927    0.160490    0.001312    0.001014   -0.000294
N    -0.115356   -1.258529    0.356545   -0.005046   -0.021399    0.003809
C    -1.173821   -0.447418    0.334866   -0.001033    0.002635   -0.000249
N    -1.001620    0.868942    0.116263    0.116933   -0.089077    0.002438
C     0.285374    1.476397   -0.101173   -0.001647    0.001374   -0.000052
O    -2.392887   -0.849664    0.515856    0.000679   -0.000695    0.000017
O     0.338816    2.672767   -0.290026    0.000251   -0.000673    0.000082
H     1.953522   -1.535368    0.201387   -0.001046    0.000865   -0.000055
H    -0.261860   -2.310825    0.533733    0.041219    0.312230   -0.052256
H     2.401935    0.916671   -0.219529   -0.002330    0.000978    0.000077
H    -1.541936    1.265035    0.107178   -1.582220    1.171145   -0.027988
H    -2.476806   -1.811399    0.672472    0.000397    0.012589   -0.002019
13
* Frequency(36) 3539.3007
C     1.393981    0.533793   -0.062711   -0.000775   -0.000066    0.000081
C     1.167811   -0.780020    0.160517    0.001312    0.001014   -0.000294
N    -0.114897   -1.256584    0.356199   -0.005046   -0.021399    0.003809
C    -1.173727   -0.447658    0.334888   -0.001033    0.002635   -0.000249
N    -1.012252    0.877041    0.116041    0.116933   -0.089077    0.002438
C     0.285524    1.476272   -0.101168   -0.001647    0.001374   -0.000052
O    -2.392949   -0.849600    0.515855    0.000679   -0.000695    0.000017
O     0.338794    2.672828   -0.290033    0.000251   -0.000673    0.000082
H     1.953618   -1.535447    0.201392   -0.001046    0.000865   -0.000055
H    -0.265607   -2.339214    0.538484    0.041219    0.312230   -0.052256
H     2.402147    0.916582   -0.219536   -0.002330    0.000978    0.000077
H    -1.398078    1.158553    0.109723   -1.582220    1.171145   -0.027988
H    -2.476842   -1.812543    0.672656    0.000397    0.012589   -0.002019
13
* Frequency(36) 3539.3007
C     1.394030    0.533797   -0.062717   -0.000775   -0.000066    0.000081
C     1.167728   -0.780084    0.160535    0.001312    0.001014   -0.000294
N    -0.114579   -1.255235    0.355959   -0.005046   -0.021399    0.003809
C    -1.173662   -0.447824    0.334904   -0.001033    0.002635   -0.000249
N    -1.019620    0.882655    0.115888    0.116933   -0.089077    0.002438
C     0.285628    1.476185   -0.101165   -0.001647    0.001374   -0.000052
O    -2.392992   -0.849557    0.515854    0.000679   -0.000695    0.000017
O     0.338778    2.672870   -0.290038    0.000251   -0.000673    0.000082
H     1.953683   -1.535501    0.201395   -0.001046    0.000865   -0.000055
H    -0.268205   -2.358890    0.541777    0.041219    0.312230   -0.052256
H     2.402293    0.916520   -0.219541   -0.002330    0.000978    0.000077
H    -1.298371    1.084750    0.111486   -1.582220    1.171145   -0.027988
H    -2.476867   -1.813337    0.672783    0.000397    0.012589   -0.002019
13
* Frequency(36) 3539.3007
C     1.394052    0.533799   -0.062719   -0.000775   -0.000066    0.000081
C     1.167691   -0.780112    0.160544    0.001312    0.001014   -0.000294
N    -0.114437   -1.254630    0.355851   -0.005046   -0.021399    0.003809
C    -1.173632   -0.447898    0.334911   -0.001033    0.002635   -0.000249
N    -1.022928    0.885174    0.115819    0.116933   -0.089077    0.002438
C     0.285675    1.476147   -0.101163   -0.001647    0.001374   -0.000052
O    -2.393011   -0.849537    0.515853    0.000679   -0.000695    0.000017
O     0.338771    2.672889   -0.290041    0.000251   -0.000673    0.000082
H     1.953713   -1.535525    0.201397   -0.001046    0.000865   -0.000055
H    -0.269371   -2.367721    0.543255    0.041219    0.312230   -0.052256
H     2.402359    0.916492   -0.219543   -0.002330    0.000978    0.000077
H    -1.253619    1.051626    0.112278   -1.582220    1.171145   -0.027988
H    -2.476878   -1.813693    0.672840    0.000397    0.012589   -0.002019
13
* Frequency(36) 3539.3007
C     1.394044    0.533798   -0.062718   -0.000775   -0.000066    0.000081
C     1.167703   -0.780103    0.160541    0.001312    0.001014   -0.000294
N    -0.114485   -1.254833    0.355887   -0.005046   -0.021399    0.003809
C    -1.173642   -0.447873    0.334909   -0.001033    0.002635   -0.000249
N    -1.021815    0.884327    0.115842    0.116933   -0.089077    0.002438
C     0.285659    1.476160   -0.101164   -0.001647    0.001374   -0.000052
O    -2.393005   -0.849543    0.515853    0.000679   -0.000695    0.000017
O     0.338773    2.672883   -0.290040    0.000251   -0.000673    0.000082
H     1.953703   -1.535517    0.201396   -0.001046    0.000865   -0.000055
H    -0.268978   -2.364750    0.542758    0.041219    0.312230   -0.052256
H     2.402337    0.916502   -0.219543   -0.002330    0.000978    0.000077
H    -1.268673    1.062769    0.112012   -1.582220    1.171145   -0.027988
H    -2.476875   -1.813573    0.672821    0.000397    0.012589   -0.002019
13
* Frequency(36) 3539.3007
C     1.394009    0.533795   -0.062714   -0.000775   -0.000066    0.000081
C     1.167764   -0.780056    0.160527    0.001312    0.001014   -0.000294
N    -0.114718   -1.255824    0.356063   -0.005046   -0.021399    0.003809
C    -1.173690   -0.447751    0.334897   -0.001033    0.002635   -0.000249
N    -1.016403    0.880204    0.115955    0.116933   -0.089077    0.002438
C     0.285583    1.476223   -0.101166   -0.001647    0.001374   -0.000052
O    -2.392973   -0.849576    0.515854    0.000679   -0.000695    0.000017
O     0.338785    2.672852   -0.290036    0.000251   -0.000673    0.000082
H     1.953655   -1.535477    0.201394   -0.001046    0.000865   -0.000055
H    -0.267071   -2.350299    0.540340    0.041219    0.312230   -0.052256
H     2.402229    0.916547   -0.219539   -0.002330    0.000978    0.000077
H    -1.341901    1.116971    0.110716   -1.582220    1.171145   -0.027988
H    -2.476856   -1.812990    0.672728    0.000397    0.012589   -0.002019
13
* Frequency(36) 3539.3007
C     1.393948    0.533790   -0.062708   -0.000775   -0.000066    0.000081
C     1.167866   -0.779977    0.160504    0.001312    0.001014   -0.000294
N    -0.115112   -1.257494    0.356361   -0.005046   -0.021399    0.003809
C    -1.173771   -0.447545    0.334878   -0.001033    0.002635   -0.000249
N    -1.007279    0.873253    0.116145    0.116933   -0.089077    0.002438
C     0.285454    1.476330   -0.101170   -0.001647    0.001374   -0.000052
O    -2.392920   -0.849630    0.515855    0.000679   -0.000695    0.000017
O     0.338804    2.672799   -0.290030    0.000251   -0.000673    0.000082
H     1.953573   -1.535410    0.201390   -0.001046    0.000865   -0.000055
H    -0.263854   -2.325935    0.536262    0.041219    0.312230   -0.052256
H     2.402047    0.916623   -0.219533   -0.002330    0.000978    0.000077
H    -1.465368    1.208360    0.108532   -1.582220    1.171145   -0.027988
H    -2.476825   -1.812008    0.672570    0.000397    0.012589   -0.002019
13
* Frequency(36) 3539.3007
C     1.393870    0.533783   -0.062700   -0.000775   -0.000066    0.000081
C     1.167999   -0.779874    0.160475    0.001312    0.001014   -0.000294
N    -0.115623   -1.259662    0.356747   -0.005046   -0.021399    0.003809
C    -1.173875   -0.447278    0.334852   -0.001033    0.002635   -0.000249
N    -0.995430    0.864227    0.116392    0.116933   -0.089077    0.002438
C     0.285287    1.476470   -0.101175   -0.001647    0.001374   -0.000052
O    -2.392851   -0.849700    0.515857    0.000679   -0.000695    0.000017
O     0.338830    2.672731   -0.290021    0.000251   -0.000673    0.000082
H     1.953467   -1.535322    0.201384   -0.001046    0.000865   -0.000055
H    -0.259678   -2.294297    0.530967    0.041219    0.312230   -0.052256
H     2.401811    0.916722   -0.219525   -0.002330    0.000978    0.000077
H    -1.625694    1.327032    0.105696   -1.582220    1.171145   -0.027988
H    -2.476785   -1.810732    0.672365    0.000397    0.012589   -0.002019
13
* Frequency(36) 3539.3007
C     1.393781    0.533776   -0.062691   -0.000775   -0.000066    0.000081
C     1.168148   -0.779758    0.160441    0.001312    0.001014   -0.000294
N    -0.116197   -1.262094    0.357179   -0.005046   -0.021399    0.003809
C    -1.173993   -0.446979    0.334824   -0.001033    0.002635   -0.000249
N    -0.982141    0.854104    0.116669    0.116933   -0.089077    0.002438
C     0.285100    1.476626   -0.101181   -0.001647    0.001374   -0.000052
O    -2.392774   -0.849779    0.515859    0.000679   -0.000695    0.000017
O     0.338858    2.672655   -0.290012    0.000251   -0.000673    0.000082
H     1.953348   -1.535224    0.201378   -0.001046    0.000865   -0.000055
H    -0.254993   -2.258813    0.525028    0.041219    0.312230   -0.052256
H     2.401547    0.916834   -0.219517   -0.002330    0.000978    0.000077
H    -1.805505    1.460126    0.102516   -1.582220    1.171145   -0.027988
H    -2.476740   -1.809302    0.672136    0.000397    0.012589   -0.002019
