13
* (null), Energy   -1000.0000000
C     1.646520    0.274089   -0.194207   -0.020950   -0.003812   -0.080871
C     1.420577   -1.039677    0.025063    0.000728    0.053103    0.256569
N     0.135453   -1.525757    0.216409   -0.038663   -0.051894   -0.350382
C    -0.924794   -0.711788    0.195329    0.075555    0.108185    0.704208
N    -0.732121    0.590004   -0.024536   -0.027702   -0.073300   -0.429310
C     0.536344    1.216046   -0.237856    0.033460    0.050161    0.387472
O    -2.146146   -1.110315    0.377217    0.002182   -0.017663   -0.144747
O     0.589994    2.411153   -0.425909   -0.007631   -0.026329   -0.097684
H     2.206629   -1.794809    0.067952   -0.045092   -0.025968   -0.333161
H     0.004335   -2.526891    0.371768    0.016197    0.023139    0.169654
H     2.655430    0.658119   -0.342686   -0.115903   -0.175817   -1.164746
H    -1.554927    1.198215   -0.034522    0.132837    0.169685    1.126171
H    -2.238862   -2.064583    0.566301   -0.037381   -0.027256   -0.217255
13
* Frequency(18)  782.6303
C     1.644139    0.273656   -0.203398   -0.020950   -0.003812   -0.080871
C     1.420659   -1.033642    0.054221    0.000728    0.053103    0.256569
N     0.131059   -1.531654    0.176590   -0.038663   -0.051894   -0.350382
C    -0.916208   -0.699493    0.275358    0.075555    0.108185    0.704208
N    -0.735269    0.581674   -0.073325   -0.027702   -0.073300   -0.429310
C     0.540147    1.221746   -0.193822    0.033460    0.050161    0.387472
O    -2.145898   -1.112322    0.360768    0.002182   -0.017663   -0.144747
O     0.589127    2.408161   -0.437011   -0.007631   -0.026329   -0.097684
H     2.201505   -1.797760    0.030090   -0.045092   -0.025968   -0.333161
H     0.006176   -2.524261    0.391048    0.016197    0.023139    0.169654
H     2.642258    0.638138   -0.475053   -0.115903   -0.175817   -1.164746
H    -1.539831    1.217499    0.093461    0.132837    0.169685    1.126171
H    -2.243111   -2.067680    0.541612   -0.037381   -0.027256   -0.217255
13
* Frequency(18)  782.6303
C     1.642016    0.273269   -0.211592   -0.020950   -0.003812   -0.080871
C     1.420733   -1.028261    0.080219    0.000728    0.053103    0.256569
N     0.127141   -1.536912    0.141086   -0.038663   -0.051894   -0.350382
C    -0.908552   -0.688531    0.346716    0.075555    0.108185    0.704208
N    -0.738076    0.574247   -0.116827   -0.027702   -0.073300   -0.429310
C     0.543537    1.226829   -0.154559    0.033460    0.050161    0.387472
O    -2.145677   -1.114112    0.346101    0.002182   -0.017663   -0.144747
O     0.588353    2.405493   -0.446909   -0.007631   -0.026329   -0.097684
H     2.196936   -1.800391   -0.003669   -0.045092   -0.025968   -0.333161
H     0.007817   -2.521916    0.408239    0.016197    0.023139    0.169654
H     2.630514    0.620322   -0.593077   -0.115903   -0.175817   -1.164746
H    -1.526370    1.234693    0.207576    0.132837    0.169685    1.126171
H    -2.246898   -2.070442    0.519597   -0.037381   -0.027256   -0.217255
13
* Frequency(18)  782.6303
C     1.640381    0.272972   -0.217903   -0.020950   -0.003812   -0.080871
C     1.420790   -1.024118    0.100240    0.000728    0.053103    0.256569
N     0.124124   -1.540962    0.113744   -0.038663   -0.051894   -0.350382
C    -0.902656   -0.680089    0.401668    0.075555    0.108185    0.704208
N    -0.740238    0.568527   -0.150328   -0.027702   -0.073300   -0.429310
C     0.546148    1.230743   -0.124324    0.033460    0.050161    0.387472
O    -2.145507   -1.115490    0.334805    0.002182   -0.017663   -0.144747
O     0.587758    2.403438   -0.454532   -0.007631   -0.026329   -0.097684
H     2.193417   -1.802418   -0.029667   -0.045092   -0.025968   -0.333161
H     0.009081   -2.520111    0.421478    0.016197    0.023139    0.169654
H     2.621470    0.606603   -0.683966   -0.115903   -0.175817   -1.164746
H    -1.516005    1.247934    0.295455    0.132837    0.169685    1.126171
H    -2.249815   -2.072569    0.502644   -0.037381   -0.027256   -0.217255
13
* Frequency(18)  782.6303
C     1.639412    0.272796   -0.221646   -0.020950   -0.003812   -0.080871
C     1.420824   -1.021660    0.112115    0.000728    0.053103    0.256569
N     0.122335   -1.543364    0.097528   -0.038663   -0.051894   -0.350382
C    -0.899159   -0.675082    0.434260    0.075555    0.108185    0.704208
N    -0.741520    0.565134   -0.170197   -0.027702   -0.073300   -0.429310
C     0.547697    1.233065   -0.106391    0.033460    0.050161    0.387472
O    -2.145406   -1.116307    0.328106    0.002182   -0.017663   -0.144747
O     0.587405    2.402220   -0.459052   -0.007631   -0.026329   -0.097684
H     2.191330   -1.803620   -0.045086   -0.045092   -0.025968   -0.333161
H     0.009831   -2.519040    0.429330    0.016197    0.023139    0.169654
H     2.616105    0.598466   -0.737873   -0.115903   -0.175817   -1.164746
H    -1.509857    1.255787    0.347576    0.132837    0.169685    1.126171
H    -2.251546   -2.073830    0.492589   -0.037381   -0.027256   -0.217255
13
* Frequency(18)  782.6303
C     1.639213    0.272759   -0.222415   -0.020950   -0.003812   -0.080871
C     1.420831   -1.021155    0.114556    0.000728    0.053103    0.256569
N     0.121967   -1.543857    0.094194   -0.038663   -0.051894   -0.350382
C    -0.898440   -0.674052    0.440960    0.075555    0.108185    0.704208
N    -0.741784    0.564437   -0.174282   -0.027702   -0.073300   -0.429310
C     0.548015    1.233542   -0.102704    0.033460    0.050161    0.387472
O    -2.145385   -1.116476    0.326729    0.002182   -0.017663   -0.144747
O     0.587332    2.401969   -0.459982   -0.007631   -0.026329   -0.097684
H     2.190901   -1.803867   -0.048256   -0.045092   -0.025968   -0.333161
H     0.009985   -2.518820    0.430944    0.016197    0.023139    0.169654
H     2.615003    0.596793   -0.748955   -0.115903   -0.175817   -1.164746
H    -1.508593    1.257402    0.358291    0.132837    0.169685    1.126171
H    -2.251901   -2.074090    0.490522   -0.037381   -0.027256   -0.217255
13
* Frequency(18)  782.6303
C     1.639805    0.272867   -0.220128   -0.020950   -0.003812   -0.080871
C     1.420810   -1.022657    0.107299    0.000728    0.053103    0.256569
N     0.123061   -1.542390    0.104104   -0.038663   -0.051894   -0.350382
C    -0.900577   -0.677112    0.421042    0.075555    0.108185    0.704208
N    -0.741000    0.566510   -0.162139   -0.027702   -0.073300   -0.429310
C     0.547069    1.232123   -0.113663    0.033460    0.050161    0.387472
O    -2.145447   -1.115976    0.330823    0.002182   -0.017663   -0.144747
O     0.587548    2.402714   -0.457219   -0.007631   -0.026329   -0.097684
H     2.192177   -1.803132   -0.038833   -0.045092   -0.025968   -0.333161
H     0.009527   -2.519474    0.426146    0.016197    0.023139    0.169654
H     2.618281    0.601766   -0.716011   -0.115903   -0.175817   -1.164746
H    -1.512350    1.252603    0.326439    0.132837    0.169685    1.126171
H    -2.250844   -2.073319    0.496667   -0.037381   -0.027256   -0.217255
13
* Frequency(18)  782.6303
C     1.641125    0.273107   -0.215032   -0.020950   -0.003812   -0.080871
C     1.420764   -1.026003    0.091131    0.000728    0.053103    0.256569
N     0.125497   -1.539119    0.126184   -0.038663   -0.051894   -0.350382
C    -0.905338   -0.683930    0.376665    0.075555    0.108185    0.704208
N    -0.739254    0.571129   -0.135085   -0.027702   -0.073300   -0.429310
C     0.544960    1.228962   -0.138081    0.033460    0.050161    0.387472
O    -2.145584   -1.114863    0.339945    0.002182   -0.017663   -0.144747
O     0.588029    2.404373   -0.451063   -0.007631   -0.026329   -0.097684
H     2.195018   -1.801496   -0.017838   -0.045092   -0.025968   -0.333161
H     0.008506   -2.520932    0.415455    0.016197    0.023139    0.169654
H     2.625585    0.612845   -0.642612   -0.115903   -0.175817   -1.164746
H    -1.520721    1.241909    0.255471    0.132837    0.169685    1.126171
H    -2.248488   -2.071601    0.510358   -0.037381   -0.027256   -0.217255
13
* Frequency(18)  782.6303
C     1.643030    0.273454   -0.207679   -0.020950   -0.003812   -0.080871
C     1.420698   -1.030831    0.067803    0.000728    0.053103    0.256569
N     0.129012   -1.534401    0.158042   -0.038663   -0.051894   -0.350382
C    -0.912208   -0.693766    0.312637    0.075555    0.108185    0.704208
N    -0.736736    0.577794   -0.096051   -0.027702   -0.073300   -0.429310
C     0.541918    1.224402   -0.173310    0.033460    0.050161    0.387472
O    -2.145783   -1.113257    0.353105    0.002182   -0.017663   -0.144747
O     0.588723    2.406767   -0.442182   -0.007631   -0.026329   -0.097684
H     2.199118   -1.799135    0.012453   -0.045092   -0.025968   -0.333161
H     0.007034   -2.523036    0.400029    0.016197    0.023139    0.169654
H     2.636123    0.628831   -0.536711   -0.115903   -0.175817   -1.164746
H    -1.532799    1.226481    0.153077    0.132837    0.169685    1.126171
H    -2.245089   -2.069123    0.530111   -0.037381   -0.027256   -0.217255
13
* Frequency(18)  782.6303
C     1.645313    0.273869   -0.198866   -0.020950   -0.003812   -0.080871
C     1.420619   -1.036618    0.039844    0.000728    0.053103    0.256569
N     0.133226   -1.528746    0.196224   -0.038663   -0.051894   -0.350382
C    -0.920441   -0.705555    0.235897    0.075555    0.108185    0.704208
N    -0.733717    0.585782   -0.049268   -0.027702   -0.073300   -0.429310
C     0.538272    1.218935   -0.215534    0.033460    0.050161    0.387472
O    -2.146020   -1.111332    0.368879    0.002182   -0.017663   -0.144747
O     0.589554    2.409636   -0.431537   -0.007631   -0.026329   -0.097684
H     2.204032   -1.796305    0.048759   -0.045092   -0.025968   -0.333161
H     0.005268   -2.525558    0.381541    0.016197    0.023139    0.169654
H     2.648753    0.647990   -0.409785   -0.115903   -0.175817   -1.164746
H    -1.547274    1.207990    0.030354    0.132837    0.169685    1.126171
H    -2.241016   -2.066153    0.553786   -0.037381   -0.027256   -0.217255
13
* Frequency(18)  782.6303
C     1.647727    0.274308   -0.189548   -0.020950   -0.003812   -0.080871
C     1.420535   -1.042736    0.010283    0.000728    0.053103    0.256569
N     0.137680   -1.522767    0.236594   -0.038663   -0.051894   -0.350382
C    -0.929147   -0.718020    0.154761    0.075555    0.108185    0.704208
N    -0.730525    0.594227    0.000195   -0.027702   -0.073300   -0.429310
C     0.534416    1.213156   -0.260178    0.033460    0.050161    0.387472
O    -2.146272   -1.109297    0.385556    0.002182   -0.017663   -0.144747
O     0.590433    2.412670   -0.420282   -0.007631   -0.026329   -0.097684
H     2.209227   -1.793313    0.087145   -0.045092   -0.025968   -0.333161
H     0.003402   -2.528224    0.361995    0.016197    0.023139    0.169654
H     2.662107    0.668247   -0.275587   -0.115903   -0.175817   -1.164746
H    -1.562579    1.188440   -0.099399    0.132837    0.169685    1.126171
H    -2.236709   -2.063012    0.578817   -0.037381   -0.027256   -0.217255
13
* Frequency(18)  782.6303
C     1.650010    0.274724   -0.180736   -0.020950   -0.003812   -0.080871
C     1.420455   -1.048523   -0.017676    0.000728    0.053103    0.256569
N     0.141894   -1.517112    0.274776   -0.038663   -0.051894   -0.350382
C    -0.937380   -0.729809    0.078021    0.075555    0.108185    0.704208
N    -0.727506    0.602215    0.046979   -0.027702   -0.073300   -0.429310
C     0.530770    1.207690   -0.302402    0.033460    0.050161    0.387472
O    -2.146510   -1.107372    0.401330    0.002182   -0.017663   -0.144747
O     0.591265    2.415539   -0.409637   -0.007631   -0.026329   -0.097684
H     2.214141   -1.790483    0.123450   -0.045092   -0.025968   -0.333161
H     0.001637   -2.530745    0.343507    0.016197    0.023139    0.169654
H     2.674737    0.687406   -0.148661   -0.115903   -0.175817   -1.164746
H    -1.577055    1.169949   -0.222122    0.132837    0.169685    1.126171
H    -2.232635   -2.060042    0.602492   -0.037381   -0.027256   -0.217255
13
* Frequency(18)  782.6303
C     1.651915    0.275070   -0.173383   -0.020950   -0.003812   -0.080871
C     1.420389   -1.053351   -0.041004    0.000728    0.053103    0.256569
N     0.145409   -1.512394    0.306633   -0.038663   -0.051894   -0.350382
C    -0.944250   -0.739645    0.013993    0.075555    0.108185    0.704208
N    -0.724988    0.608879    0.086012   -0.027702   -0.073300   -0.429310
C     0.527728    1.203129   -0.337631    0.033460    0.050161    0.387472
O    -2.146708   -1.105766    0.414490    0.002182   -0.017663   -0.144747
O     0.591959    2.417933   -0.400755   -0.007631   -0.026329   -0.097684
H     2.218240   -1.788122    0.153742   -0.045092   -0.025968   -0.333161
H     0.000164   -2.532849    0.328081    0.016197    0.023139    0.169654
H     2.685275    0.703392   -0.042760   -0.115903   -0.175817   -1.164746
H    -1.589133    1.154521   -0.324515    0.132837    0.169685    1.126171
H    -2.229237   -2.057564    0.622245   -0.037381   -0.027256   -0.217255
13
* Frequency(18)  782.6303
C     1.653235    0.275311   -0.168286   -0.020950   -0.003812   -0.080871
C     1.420343   -1.056698   -0.057172    0.000728    0.053103    0.256569
N     0.147845   -1.509124    0.328714   -0.038663   -0.051894   -0.350382
C    -0.949011   -0.746463   -0.030385    0.075555    0.108185    0.704208
N    -0.723242    0.613498    0.113066   -0.027702   -0.073300   -0.429310
C     0.525619    1.199968   -0.362049    0.033460    0.050161    0.387472
O    -2.146845   -1.104653    0.423612    0.002182   -0.017663   -0.144747
O     0.592440    2.419592   -0.394600   -0.007631   -0.026329   -0.097684
H     2.221082   -1.786486    0.174737   -0.045092   -0.025968   -0.333161
H    -0.000856   -2.534307    0.317390    0.016197    0.023139    0.169654
H     2.692579    0.714472    0.030639   -0.115903   -0.175817   -1.164746
H    -1.597504    1.143827   -0.395483    0.132837    0.169685    1.126171
H    -2.226881   -2.055847    0.635936   -0.037381   -0.027256   -0.217255
13
* Frequency(18)  782.6303
C     1.653828    0.275418   -0.165999   -0.020950   -0.003812   -0.080871
C     1.420323   -1.058200   -0.064429    0.000728    0.053103    0.256569
N     0.148939   -1.507656    0.338624   -0.038663   -0.051894   -0.350382
C    -0.951148   -0.749523   -0.050302    0.075555    0.108185    0.704208
N    -0.722459    0.615572    0.125209   -0.027702   -0.073300   -0.429310
C     0.524673    1.198549   -0.373008    0.033460    0.050161    0.387472
O    -2.146907   -1.104154    0.427706    0.002182   -0.017663   -0.144747
O     0.592656    2.420337   -0.391837   -0.007631   -0.026329   -0.097684
H     2.222357   -1.785751    0.184160   -0.045092   -0.025968   -0.333161
H    -0.001314   -2.534962    0.312592    0.016197    0.023139    0.169654
H     2.695857    0.719444    0.063583   -0.115903   -0.175817   -1.164746
H    -1.601261    1.139028   -0.427336    0.132837    0.169685    1.126171
H    -2.225824   -2.055076    0.642081   -0.037381   -0.027256   -0.217255
13
* Frequency(18)  782.6303
C     1.653628    0.275382   -0.166769   -0.020950   -0.003812   -0.080871
C     1.420330   -1.057694   -0.061988    0.000728    0.053103    0.256569
N     0.148571   -1.508150    0.335290   -0.038663   -0.051894   -0.350382
C    -0.950429   -0.748493   -0.043602    0.075555    0.108185    0.704208
N    -0.722722    0.614874    0.121124   -0.027702   -0.073300   -0.429310
C     0.524991    1.199027   -0.369321    0.033460    0.050161    0.387472
O    -2.146886   -1.104322    0.426329    0.002182   -0.017663   -0.144747
O     0.592583    2.420086   -0.392766   -0.007631   -0.026329   -0.097684
H     2.221928   -1.785998    0.180990   -0.045092   -0.025968   -0.333161
H    -0.001160   -2.534741    0.314206    0.016197    0.023139    0.169654
H     2.694754    0.717772    0.052501   -0.115903   -0.175817   -1.164746
H    -1.599997    1.140643   -0.416621    0.132837    0.169685    1.126171
H    -2.226179   -2.055335    0.640014   -0.037381   -0.027256   -0.217255
13
* Frequency(18)  782.6303
C     1.652659    0.275206   -0.170511   -0.020950   -0.003812   -0.080871
C     1.420363   -1.055237   -0.050113    0.000728    0.053103    0.256569
N     0.146782   -1.510551    0.319074   -0.038663   -0.051894   -0.350382
C    -0.946932   -0.743486   -0.011010    0.075555    0.108185    0.704208
N    -0.724004    0.611482    0.101255   -0.027702   -0.073300   -0.429310
C     0.526540    1.201348   -0.351388    0.033460    0.050161    0.387472
O    -2.146785   -1.105139    0.419630    0.002182   -0.017663   -0.144747
O     0.592230    2.418867   -0.397287   -0.007631   -0.026329   -0.097684
H     2.219841   -1.787200    0.165571   -0.045092   -0.025968   -0.333161
H    -0.000411   -2.533670    0.322058    0.016197    0.023139    0.169654
H     2.689390    0.709634   -0.001406   -0.115903   -0.175817   -1.164746
H    -1.593849    1.148496   -0.364500    0.132837    0.169685    1.126171
H    -2.227909   -2.056596    0.629959   -0.037381   -0.027256   -0.217255
13
* Frequency(18)  782.6303
C     1.651024    0.274908   -0.176822   -0.020950   -0.003812   -0.080871
C     1.420420   -1.051093   -0.030092    0.000728    0.053103    0.256569
N     0.143765   -1.514601    0.291732   -0.038663   -0.051894   -0.350382
C    -0.941036   -0.735044    0.043942    0.075555    0.108185    0.704208
N    -0.726166    0.605762    0.067754   -0.027702   -0.073300   -0.429310
C     0.529151    1.205262   -0.321153    0.033460    0.050161    0.387472
O    -2.146615   -1.106518    0.408334    0.002182   -0.017663   -0.144747
O     0.591634    2.416813   -0.404910   -0.007631   -0.026329   -0.097684
H     2.216323   -1.789227    0.139573   -0.045092   -0.025968   -0.333161
H     0.000853   -2.531865    0.335297    0.016197    0.023139    0.169654
H     2.680346    0.695915   -0.092295   -0.115903   -0.175817   -1.164746
H    -1.583484    1.161737   -0.276620    0.132837    0.169685    1.126171
H    -2.230826   -2.058723    0.613006   -0.037381   -0.027256   -0.217255
13
* Frequency(18)  782.6303
C     1.648901    0.274522   -0.185017   -0.020950   -0.003812   -0.080871
C     1.420494   -1.045712   -0.004094    0.000728    0.053103    0.256569
N     0.139847   -1.519859    0.256228   -0.038663   -0.051894   -0.350382
C    -0.933380   -0.724082    0.115299    0.075555    0.108185    0.704208
N    -0.728973    0.598334    0.024252   -0.027702   -0.073300   -0.429310
C     0.532541    1.210345   -0.281890    0.033460    0.050161    0.387472
O    -2.146394   -1.108307    0.393667    0.002182   -0.017663   -0.144747
O     0.590861    2.414145   -0.414808   -0.007631   -0.026329   -0.097684
H     2.211754   -1.791858    0.105814   -0.045092   -0.025968   -0.333161
H     0.002495   -2.529520    0.352488    0.016197    0.023139    0.169654
H     2.668602    0.678099   -0.210319   -0.115903   -0.175817   -1.164746
H    -1.570023    1.178931   -0.162506    0.132837    0.169685    1.126171
H    -2.234614   -2.061485    0.590991   -0.037381   -0.027256   -0.217255
13
* Frequency(18)  782.6303
C     1.646520    0.274089   -0.194207   -0.020950   -0.003812   -0.080871
C     1.420577   -1.039677    0.025063    0.000728    0.053103    0.256569
N     0.135453   -1.525757    0.216409   -0.038663   -0.051894   -0.350382
C    -0.924794   -0.711788    0.195329    0.075555    0.108185    0.704208
N    -0.732121    0.590004   -0.024536   -0.027702   -0.073300   -0.429310
C     0.536344    1.216046   -0.237856    0.033460    0.050161    0.387472
O    -2.146146   -1.110315    0.377217    0.002182   -0.017663   -0.144747
O     0.589994    2.411153   -0.425909   -0.007631   -0.026329   -0.097684
H     2.206629   -1.794809    0.067952   -0.045092   -0.025968   -0.333161
H     0.004335   -2.526891    0.371768    0.016197    0.023139    0.169654
H     2.655430    0.658119   -0.342686   -0.115903   -0.175817   -1.164746
H    -1.554927    1.198215   -0.034522    0.132837    0.169685    1.126171
H    -2.238862   -2.064583    0.566301   -0.037381   -0.027256   -0.217255
