13
* (null), Energy   -1000.0000000
C     1.393781    0.533776   -0.062691    0.565698    0.034685   -0.064046
C     1.168148   -0.779758    0.160441   -0.254083    0.146902    0.008085
N    -0.116197   -1.262094    0.357179   -0.086126   -0.155216    0.031378
C    -1.173993   -0.446979    0.334824    0.091829   -0.072733    0.003690
N    -0.982141    0.854104    0.116669   -0.557790   -0.032719    0.058640
C     0.285100    1.476626   -0.101181    0.040008    0.056022   -0.012949
O    -2.392774   -0.849779    0.515859    0.268562    0.125442   -0.045999
O     0.338858    2.672655   -0.290012    0.017350    0.002665   -0.002128
H     1.953348   -1.535224    0.201378   -0.514395   -0.105705    0.028308
H    -0.254993   -2.258813    0.525028    0.031067   -0.178200    0.025600
H     2.401547    0.916834   -0.219517    0.882755   -0.668491    0.042565
H    -1.805505    1.460126    0.102516   -1.025113   -0.633146    0.200717
H    -2.476740   -1.809302    0.672136   -0.248577    0.199130   -0.007051
13
* Frequency(20)  964.2409
C     1.458070    0.537718   -0.069969    0.565698    0.034685   -0.064046
C     1.139273   -0.763064    0.161360   -0.254083    0.146902    0.008085
N    -0.125985   -1.279733    0.360745   -0.086126   -0.155216    0.031378
C    -1.163557   -0.455245    0.335244    0.091829   -0.072733    0.003690
N    -1.045531    0.850385    0.123333   -0.557790   -0.032719    0.058640
C     0.289647    1.482992   -0.102653    0.040008    0.056022   -0.012949
O    -2.362254   -0.835523    0.510631    0.268562    0.125442   -0.045999
O     0.340830    2.672957   -0.290254    0.017350    0.002665   -0.002128
H     1.894890   -1.547237    0.204595   -0.514395   -0.105705    0.028308
H    -0.251463   -2.279065    0.527937    0.031067   -0.178200    0.025600
H     2.501867    0.840863   -0.214679    0.882755   -0.668491    0.042565
H    -1.922004    1.388173    0.125326   -1.025113   -0.633146    0.200717
H    -2.504989   -1.786671    0.671335   -0.248577    0.199130   -0.007051
13
* Frequency(20)  964.2409
C     1.515392    0.541232   -0.076459    0.565698    0.034685   -0.064046
C     1.113527   -0.748178    0.162179   -0.254083    0.146902    0.008085
N    -0.134712   -1.295461    0.363925   -0.086126   -0.155216    0.031378
C    -1.154252   -0.462615    0.335617    0.091829   -0.072733    0.003690
N    -1.102052    0.847070    0.129275   -0.557790   -0.032719    0.058640
C     0.293701    1.488669   -0.103965    0.040008    0.056022   -0.012949
O    -2.335040   -0.822812    0.505970    0.268562    0.125442   -0.045999
O     0.342588    2.673227   -0.290470    0.017350    0.002665   -0.002128
H     1.842767   -1.557948    0.207463   -0.514395   -0.105705    0.028308
H    -0.248315   -2.297122    0.530531    0.031067   -0.178200    0.025600
H     2.591316    0.773125   -0.210366    0.882755   -0.668491    0.042565
H    -2.025878    1.324016    0.145665   -1.025113   -0.633146    0.200717
H    -2.530178   -1.766494    0.670620   -0.248577    0.199130   -0.007051
13
* Frequency(20)  964.2409
C     1.559535    0.543939   -0.081456    0.565698    0.034685   -0.064046
C     1.093700   -0.736715    0.162810   -0.254083    0.146902    0.008085
N    -0.141432   -1.307573    0.366373   -0.086126   -0.155216    0.031378
C    -1.147086   -0.468290    0.335905    0.091829   -0.072733    0.003690
N    -1.145578    0.844517    0.133851   -0.557790   -0.032719    0.058640
C     0.296823    1.493041   -0.104976    0.040008    0.056022   -0.012949
O    -2.314083   -0.813024    0.502381    0.268562    0.125442   -0.045999
O     0.343942    2.673435   -0.290636    0.017350    0.002665   -0.002128
H     1.802626   -1.566196    0.209672   -0.514395   -0.105705    0.028308
H    -0.245890   -2.311028    0.532529    0.031067   -0.178200    0.025600
H     2.660201    0.720960   -0.207044    0.882755   -0.668491    0.042565
H    -2.105871    1.274609    0.161328   -1.025113   -0.633146    0.200717
H    -2.549575   -1.750955    0.670070   -0.248577    0.199130   -0.007051
13
* Frequency(20)  964.2409
C     1.585717    0.545544   -0.084421    0.565698    0.034685   -0.064046
C     1.081941   -0.729916    0.163184   -0.254083    0.146902    0.008085
N    -0.145419   -1.314757    0.367826   -0.086126   -0.155216    0.031378
C    -1.142836   -0.471657    0.336076    0.091829   -0.072733    0.003690
N    -1.171394    0.843002    0.136565   -0.557790   -0.032719    0.058640
C     0.298674    1.495633   -0.105575    0.040008    0.056022   -0.012949
O    -2.301654   -0.807218    0.500252    0.268562    0.125442   -0.045999
O     0.344745    2.673559   -0.290734    0.017350    0.002665   -0.002128
H     1.778819   -1.571088    0.210982   -0.514395   -0.105705    0.028308
H    -0.244452   -2.319275    0.533714    0.031067   -0.178200    0.025600
H     2.701056    0.690021   -0.205074    0.882755   -0.668491    0.042565
H    -2.153315    1.245306    0.170617   -1.025113   -0.633146    0.200717
H    -2.561080   -1.741739    0.669744   -0.248577    0.199130   -0.007051
13
* Frequency(20)  964.2409
C     1.591099    0.545874   -0.085030    0.565698    0.034685   -0.064046
C     1.079523   -0.728519    0.163261   -0.254083    0.146902    0.008085
N    -0.146238   -1.316234    0.368124   -0.086126   -0.155216    0.031378
C    -1.141963   -0.472349    0.336111    0.091829   -0.072733    0.003690
N    -1.176701    0.842691    0.137123   -0.557790   -0.032719    0.058640
C     0.299055    1.496166   -0.105698    0.040008    0.056022   -0.012949
O    -2.299099   -0.806024    0.499814    0.268562    0.125442   -0.045999
O     0.344910    2.673584   -0.290754    0.017350    0.002665   -0.002128
H     1.773925   -1.572094    0.211252   -0.514395   -0.105705    0.028308
H    -0.244157   -2.320970    0.533957    0.031067   -0.178200    0.025600
H     2.709455    0.683661   -0.204669    0.882755   -0.668491    0.042565
H    -2.163069    1.239282    0.172527   -1.025113   -0.633146    0.200717
H    -2.563445   -1.739844    0.669677   -0.248577    0.199130   -0.007051
13
* Frequency(20)  964.2409
C     1.575099    0.544893   -0.083218    0.565698    0.034685   -0.064046
C     1.086710   -0.732674    0.163032   -0.254083    0.146902    0.008085
N    -0.143802   -1.311844    0.367237   -0.086126   -0.155216    0.031378
C    -1.144560   -0.470291    0.336007    0.091829   -0.072733    0.003690
N    -1.160924    0.843616    0.135464   -0.557790   -0.032719    0.058640
C     0.297923    1.494582   -0.105332    0.040008    0.056022   -0.012949
O    -2.306695   -0.809572    0.501115    0.268562    0.125442   -0.045999
O     0.344419    2.673509   -0.290694    0.017350    0.002665   -0.002128
H     1.788474   -1.569104    0.210451   -0.514395   -0.105705    0.028308
H    -0.245036   -2.315930    0.533233    0.031067   -0.178200    0.025600
H     2.684488    0.702568   -0.205873    0.882755   -0.668491    0.042565
H    -2.134075    1.257190    0.166850   -1.025113   -0.633146    0.200717
H    -2.556414   -1.745476    0.669876   -0.248577    0.199130   -0.007051
13
* Frequency(20)  964.2409
C     1.539450    0.542707   -0.079182    0.565698    0.034685   -0.064046
C     1.102721   -0.741931    0.162523   -0.254083    0.146902    0.008085
N    -0.138375   -1.302063    0.365259   -0.086126   -0.155216    0.031378
C    -1.150347   -0.465708    0.335774    0.091829   -0.072733    0.003690
N    -1.125774    0.845678    0.131769   -0.557790   -0.032719    0.058640
C     0.295402    1.491052   -0.104516    0.040008    0.056022   -0.012949
O    -2.323619   -0.817478    0.504014    0.268562    0.125442   -0.045999
O     0.343326    2.673341   -0.290560    0.017350    0.002665   -0.002128
H     1.820890   -1.562443    0.208667   -0.514395   -0.105705    0.028308
H    -0.246993   -2.304701    0.531620    0.031067   -0.178200    0.025600
H     2.628859    0.744695   -0.208556    0.882755   -0.668491    0.042565
H    -2.069475    1.297089    0.154201   -1.025113   -0.633146    0.200717
H    -2.540749   -1.758025    0.670320   -0.248577    0.199130   -0.007051
13
* Frequency(20)  964.2409
C     1.488016    0.539554   -0.073359    0.565698    0.034685   -0.064046
C     1.125823   -0.755287    0.161788   -0.254083    0.146902    0.008085
N    -0.130544   -1.287950    0.362406   -0.086126   -0.155216    0.031378
C    -1.158696   -0.459095    0.335439    0.091829   -0.072733    0.003690
N    -1.075058    0.848653    0.126437   -0.557790   -0.032719    0.058640
C     0.291765    1.485958   -0.103338    0.040008    0.056022   -0.012949
O    -2.348037   -0.828883    0.508196    0.268562    0.125442   -0.045999
O     0.341748    2.673099   -0.290367    0.017350    0.002665   -0.002128
H     1.867660   -1.552832    0.206093   -0.514395   -0.105705    0.028308
H    -0.249818   -2.288498    0.529293    0.031067   -0.178200    0.025600
H     2.548597    0.805475   -0.212426    0.882755   -0.668491    0.042565
H    -1.976270    1.354656    0.135952   -1.025113   -0.633146    0.200717
H    -2.518148   -1.776130    0.670962   -0.248577    0.199130   -0.007051
13
* Frequency(20)  964.2409
C     1.426370    0.535774   -0.066380    0.565698    0.034685   -0.064046
C     1.153511   -0.771296    0.160907   -0.254083    0.146902    0.008085
N    -0.121158   -1.271036    0.358987   -0.086126   -0.155216    0.031378
C    -1.168703   -0.451169    0.335037    0.091829   -0.072733    0.003690
N    -1.014274    0.852219    0.120047   -0.557790   -0.032719    0.058640
C     0.287405    1.479853   -0.101927    0.040008    0.056022   -0.012949
O    -2.377303   -0.842553    0.513209    0.268562    0.125442   -0.045999
O     0.339858    2.672808   -0.290135    0.017350    0.002665   -0.002128
H     1.923715   -1.541313    0.203009   -0.514395   -0.105705    0.028308
H    -0.253204   -2.269079    0.526503    0.031067   -0.178200    0.025600
H     2.452400    0.878323   -0.217064    0.882755   -0.668491    0.042565
H    -1.864560    1.423652    0.114079   -1.025113   -0.633146    0.200717
H    -2.491060   -1.797830    0.671730   -0.248577    0.199130   -0.007051
13
* Frequency(20)  964.2409
C     1.361193    0.531778   -0.059001    0.565698    0.034685   -0.064046
C     1.182786   -0.788221    0.159975   -0.254083    0.146902    0.008085
N    -0.111235   -1.253152    0.355372   -0.086126   -0.155216    0.031378
C    -1.179283   -0.442789    0.334612    0.091829   -0.072733    0.003690
N    -0.950008    0.855989    0.113291   -0.557790   -0.032719    0.058640
C     0.282795    1.473398   -0.100435    0.040008    0.056022   -0.012949
O    -2.408246   -0.857006    0.518509    0.268562    0.125442   -0.045999
O     0.337859    2.672501   -0.289889    0.017350    0.002665   -0.002128
H     1.982982   -1.529134    0.199747   -0.514395   -0.105705    0.028308
H    -0.256783   -2.248548    0.523553    0.031067   -0.178200    0.025600
H     2.350693    0.955344   -0.221969    0.882755   -0.668491    0.042565
H    -1.746450    1.496601    0.090953   -1.025113   -0.633146    0.200717
H    -2.462420   -1.820773    0.672542   -0.248577    0.199130   -0.007051
13
* Frequency(20)  964.2409
C     1.299547    0.527998   -0.052022    0.565698    0.034685   -0.064046
C     1.210474   -0.804230    0.159094   -0.254083    0.146902    0.008085
N    -0.101850   -1.236238    0.351952   -0.086126   -0.155216    0.031378
C    -1.189290   -0.434863    0.334209    0.091829   -0.072733    0.003690
N    -0.889223    0.859554    0.106900   -0.557790   -0.032719    0.058640
C     0.278436    1.467293   -0.099024    0.040008    0.056022   -0.012949
O    -2.437512   -0.870676    0.523522    0.268562    0.125442   -0.045999
O     0.335968    2.672211   -0.289658    0.017350    0.002665   -0.002128
H     2.039037   -1.517615    0.196662   -0.514395   -0.105705    0.028308
H    -0.260168   -2.229128    0.520764    0.031067   -0.178200    0.025600
H     2.254496    1.028192   -0.226607    0.882755   -0.668491    0.042565
H    -1.634740    1.565597    0.069080   -1.025113   -0.633146    0.200717
H    -2.435332   -1.842473    0.673311   -0.248577    0.199130   -0.007051
13
* Frequency(20)  964.2409
C     1.248112    0.524844   -0.046199    0.565698    0.034685   -0.064046
C     1.233575   -0.817586    0.158359   -0.254083    0.146902    0.008085
N    -0.094019   -1.222125    0.349100   -0.086126   -0.155216    0.031378
C    -1.197639   -0.428250    0.333874    0.091829   -0.072733    0.003690
N    -0.838508    0.862529    0.101569   -0.557790   -0.032719    0.058640
C     0.274798    1.462200   -0.097847    0.040008    0.056022   -0.012949
O    -2.461930   -0.882081    0.527704    0.268562    0.125442   -0.045999
O     0.334391    2.671968   -0.289464    0.017350    0.002665   -0.002128
H     2.085807   -1.508005    0.194088   -0.514395   -0.105705    0.028308
H    -0.262993   -2.212926    0.518436    0.031067   -0.178200    0.025600
H     2.174234    1.088972   -0.230477    0.882755   -0.668491    0.042565
H    -1.541535    1.623164    0.050830   -1.025113   -0.633146    0.200717
H    -2.412730   -1.860578    0.673952   -0.248577    0.199130   -0.007051
13
* Frequency(20)  964.2409
C     1.212464    0.522659   -0.042163    0.565698    0.034685   -0.064046
C     1.249587   -0.826843    0.157850   -0.254083    0.146902    0.008085
N    -0.088592   -1.212344    0.347122   -0.086126   -0.155216    0.031378
C    -1.203426   -0.423666    0.333641    0.091829   -0.072733    0.003690
N    -0.803358    0.864591    0.097873   -0.557790   -0.032719    0.058640
C     0.272277    1.458669   -0.097031    0.040008    0.056022   -0.012949
O    -2.478854   -0.889986    0.530603    0.268562    0.125442   -0.045999
O     0.333297    2.671800   -0.289330    0.017350    0.002665   -0.002128
H     2.118222   -1.501343    0.192305   -0.514395   -0.105705    0.028308
H    -0.264951   -2.201696    0.516823    0.031067   -0.178200    0.025600
H     2.118605    1.131099   -0.233160    0.882755   -0.668491    0.042565
H    -1.476935    1.663063    0.038182   -1.025113   -0.633146    0.200717
H    -2.397066   -1.873127    0.674396   -0.248577    0.199130   -0.007051
13
* Frequency(20)  964.2409
C     1.196464    0.521677   -0.040351    0.565698    0.034685   -0.064046
C     1.256774   -0.830998    0.157621   -0.254083    0.146902    0.008085
N    -0.086156   -1.207954    0.346235   -0.086126   -0.155216    0.031378
C    -1.206023   -0.421609    0.333537    0.091829   -0.072733    0.003690
N    -0.787581    0.865516    0.096215   -0.557790   -0.032719    0.058640
C     0.271145    1.457085   -0.096665    0.040008    0.056022   -0.012949
O    -2.486450   -0.893534    0.531904    0.268562    0.125442   -0.045999
O     0.332806    2.671725   -0.289270    0.017350    0.002665   -0.002128
H     2.132772   -1.498354    0.191504   -0.514395   -0.105705    0.028308
H    -0.265830   -2.196656    0.516099    0.031067   -0.178200    0.025600
H     2.093638    1.150006   -0.234364    0.882755   -0.668491    0.042565
H    -1.447941    1.680971    0.032505   -1.025113   -0.633146    0.200717
H    -2.390035   -1.878759    0.674595   -0.248577    0.199130   -0.007051
13
* Frequency(20)  964.2409
C     1.201846    0.522008   -0.040960    0.565698    0.034685   -0.064046
C     1.254356   -0.829601    0.157698   -0.254083    0.146902    0.008085
N    -0.086975   -1.209431    0.346533   -0.086126   -0.155216    0.031378
C    -1.205149   -0.422301    0.333572    0.091829   -0.072733    0.003690
N    -0.792888    0.865205    0.096773   -0.557790   -0.032719    0.058640
C     0.271526    1.457618   -0.096788    0.040008    0.056022   -0.012949
O    -2.483895   -0.892341    0.531466    0.268562    0.125442   -0.045999
O     0.332972    2.671750   -0.289290    0.017350    0.002665   -0.002128
H     2.127877   -1.499359    0.191773   -0.514395   -0.105705    0.028308
H    -0.265534   -2.198352    0.516342    0.031067   -0.178200    0.025600
H     2.102037    1.143646   -0.233959    0.882755   -0.668491    0.042565
H    -1.457694    1.674947    0.034414   -1.025113   -0.633146    0.200717
H    -2.392400   -1.876864    0.674528   -0.248577    0.199130   -0.007051
13
* Frequency(20)  964.2409
C     1.228027    0.523613   -0.043925    0.565698    0.034685   -0.064046
C     1.242597   -0.822802    0.158072   -0.254083    0.146902    0.008085
N    -0.090961   -1.216614    0.347986   -0.086126   -0.155216    0.031378
C    -1.200899   -0.425668    0.333743    0.091829   -0.072733    0.003690
N    -0.818704    0.863691    0.099487   -0.557790   -0.032719    0.058640
C     0.273378    1.460211   -0.097387    0.040008    0.056022   -0.012949
O    -2.471465   -0.886535    0.529337    0.268562    0.125442   -0.045999
O     0.333775    2.671874   -0.289388    0.017350    0.002665   -0.002128
H     2.104070   -1.504252    0.193083   -0.514395   -0.105705    0.028308
H    -0.264096   -2.206599    0.517527    0.031067   -0.178200    0.025600
H     2.142892    1.112707   -0.231989    0.882755   -0.668491    0.042565
H    -1.505138    1.645643    0.043704   -1.025113   -0.633146    0.200717
H    -2.403905   -1.867648    0.674202   -0.248577    0.199130   -0.007051
13
* Frequency(20)  964.2409
C     1.272171    0.526319   -0.048922    0.565698    0.034685   -0.064046
C     1.222770   -0.811339    0.158703   -0.254083    0.146902    0.008085
N    -0.097682   -1.228726    0.350434   -0.086126   -0.155216    0.031378
C    -1.193734   -0.431343    0.334031    0.091829   -0.072733    0.003690
N    -0.862230    0.861137    0.104063   -0.557790   -0.032719    0.058640
C     0.276499    1.464582   -0.098398    0.040008    0.056022   -0.012949
O    -2.450508   -0.876746    0.525748    0.268562    0.125442   -0.045999
O     0.335128    2.672082   -0.289555    0.017350    0.002665   -0.002128
H     2.063930   -1.512500    0.195292   -0.514395   -0.105705    0.028308
H    -0.261672   -2.220505    0.519525    0.031067   -0.178200    0.025600
H     2.211777    1.060542   -0.228667    0.882755   -0.668491    0.042565
H    -1.585132    1.596237    0.059367   -1.025113   -0.633146    0.200717
H    -2.423302   -1.852109    0.673652   -0.248577    0.199130   -0.007051
13
* Frequency(20)  964.2409
C     1.329493    0.529834   -0.055412    0.565698    0.034685   -0.064046
C     1.197023   -0.796453    0.159522   -0.254083    0.146902    0.008085
N    -0.106409   -1.244454    0.353614   -0.086126   -0.155216    0.031378
C    -1.184429   -0.438713    0.334405    0.091829   -0.072733    0.003690
N    -0.918751    0.857822    0.110005   -0.557790   -0.032719    0.058640
C     0.280553    1.470259   -0.099710    0.040008    0.056022   -0.012949
O    -2.423295   -0.864035    0.521087    0.268562    0.125442   -0.045999
O     0.336886    2.672352   -0.289770    0.017350    0.002665   -0.002128
H     2.011807   -1.523211    0.198161   -0.514395   -0.105705    0.028308
H    -0.258524   -2.238562    0.522119    0.031067   -0.178200    0.025600
H     2.301226    0.992804   -0.224354    0.882755   -0.668491    0.042565
H    -1.689006    1.532080    0.079705   -1.025113   -0.633146    0.200717
H    -2.448490   -1.831932    0.672937   -0.248577    0.199130   -0.007051
13
* Frequency(20)  964.2409
C     1.393781    0.533776   -0.062691    0.565698    0.034685   -0.064046
C     1.168148   -0.779758    0.160441   -0.254083    0.146902    0.008085
N    -0.116197   -1.262094    0.357179   -0.086126   -0.155216    0.031378
C    -1.173993   -0.446979    0.334824    0.091829   -0.072733    0.003690
N    -0.982141    0.854104    0.116669   -0.557790   -0.032719    0.058640
C     0.285100    1.476626   -0.101181    0.040008    0.056022   -0.012949
O    -2.392774   -0.849779    0.515859    0.268562    0.125442   -0.045999
O     0.338858    2.672655   -0.290012    0.017350    0.002665   -0.002128
H     1.953348   -1.535224    0.201378   -0.514395   -0.105705    0.028308
H    -0.254993   -2.258813    0.525028    0.031067   -0.178200    0.025600
H     2.401547    0.916834   -0.219517    0.882755   -0.668491    0.042565
H    -1.805505    1.460126    0.102516   -1.025113   -0.633146    0.200717
H    -2.476740   -1.809302    0.672136   -0.248577    0.199130   -0.007051
