13
* (null), Energy   -1000.0000000
C     1.393781    0.533776   -0.062691   -0.031870   -0.048700   -0.322291
C     1.168148   -0.779758    0.160441   -0.017001   -0.023751   -0.162378
N    -0.116197   -1.262094    0.357179    0.006223    0.010996    0.072731
C    -1.173993   -0.446979    0.334824   -0.000310   -0.000908   -0.007781
N    -0.982141    0.854104    0.116669   -0.008756   -0.014665   -0.095920
C     0.285100    1.476626   -0.101181    0.045047    0.071780    0.473504
O    -2.392774   -0.849779    0.515859    0.001528    0.000487    0.001816
O     0.338858    2.672655   -0.290012   -0.012239   -0.021401   -0.130919
H     1.953348   -1.535224    0.201378    0.106367    0.173164    1.109258
H    -0.254993   -2.258813    0.525028   -0.013943   -0.024507   -0.154952
H     2.401547    0.916834   -0.219517    0.144280    0.228143    1.487492
H    -1.805505    1.460126    0.102516    0.014081    0.021633    0.134960
H    -2.476740   -1.809302    0.672136    0.003677    0.003331    0.020376
13
* Frequency(19)  831.2200
C     1.390160    0.528241   -0.099317   -0.031870   -0.048700   -0.322291
C     1.166216   -0.782458    0.141988   -0.017001   -0.023751   -0.162378
N    -0.115490   -1.260844    0.365445    0.006223    0.010996    0.072731
C    -1.174028   -0.447082    0.333940   -0.000310   -0.000908   -0.007781
N    -0.983136    0.852437    0.105768   -0.008756   -0.014665   -0.095920
C     0.290219    1.484783   -0.047370    0.045047    0.071780    0.473504
O    -2.392601   -0.849724    0.516065    0.001528    0.000487    0.001816
O     0.337467    2.670222   -0.304890   -0.012239   -0.021401   -0.130919
H     1.965436   -1.515545    0.327439    0.106367    0.173164    1.109258
H    -0.256578   -2.261598    0.507419   -0.013943   -0.024507   -0.154952
H     2.417943    0.942761   -0.050471    0.144280    0.228143    1.487492
H    -1.803905    1.462585    0.117853    0.014081    0.021633    0.134960
H    -2.476322   -1.808923    0.674452    0.003677    0.003331    0.020376
13
* Frequency(19)  831.2200
C     1.386930    0.523306   -0.131975   -0.031870   -0.048700   -0.322291
C     1.164494   -0.784864    0.125534   -0.017001   -0.023751   -0.162378
N    -0.114859   -1.259730    0.372815    0.006223    0.010996    0.072731
C    -1.174059   -0.447174    0.333151   -0.000310   -0.000908   -0.007781
N    -0.984023    0.850951    0.096049   -0.008756   -0.014665   -0.095920
C     0.294784    1.492057    0.000610    0.045047    0.071780    0.473504
O    -2.392446   -0.849675    0.516249    0.001528    0.000487    0.001816
O     0.336227    2.668054   -0.318156   -0.012239   -0.021401   -0.130919
H     1.976214   -1.497998    0.439840    0.106367    0.173164    1.109258
H    -0.257991   -2.264082    0.491717   -0.013943   -0.024507   -0.154952
H     2.432563    0.965879    0.100256    0.144280    0.228143    1.487492
H    -1.802478    1.464777    0.131529    0.014081    0.021633    0.134960
H    -2.475949   -1.808586    0.676516    0.003677    0.003331    0.020376
13
* Frequency(19)  831.2200
C     1.384443    0.519506   -0.157125   -0.031870   -0.048700   -0.322291
C     1.163167   -0.786718    0.112863   -0.017001   -0.023751   -0.162378
N    -0.114373   -1.258872    0.378490    0.006223    0.010996    0.072731
C    -1.174084   -0.447245    0.332544   -0.000310   -0.000908   -0.007781
N    -0.984707    0.849807    0.088564   -0.008756   -0.014665   -0.095920
C     0.298299    1.497658    0.037559    0.045047    0.071780    0.473504
O    -2.392327   -0.849637    0.516391    0.001528    0.000487    0.001816
O     0.335272    2.666384   -0.328372   -0.012239   -0.021401   -0.130919
H     1.984515   -1.484485    0.526400    0.106367    0.173164    1.109258
H    -0.259079   -2.265994    0.479626   -0.013943   -0.024507   -0.154952
H     2.443822    0.983681    0.216331    0.144280    0.228143    1.487492
H    -1.801379    1.466465    0.142060    0.014081    0.021633    0.134960
H    -2.475662   -1.808326    0.678106    0.003677    0.003331    0.020376
13
* Frequency(19)  831.2200
C     1.382968    0.517252   -0.172041   -0.031870   -0.048700   -0.322291
C     1.162380   -0.787817    0.105348   -0.017001   -0.023751   -0.162378
N    -0.114085   -1.258363    0.381856    0.006223    0.010996    0.072731
C    -1.174098   -0.447287    0.332184   -0.000310   -0.000908   -0.007781
N    -0.985112    0.849128    0.084124   -0.008756   -0.014665   -0.095920
C     0.300384    1.500980    0.059474    0.045047    0.071780    0.473504
O    -2.392256   -0.849614    0.516475    0.001528    0.000487    0.001816
O     0.334706    2.665393   -0.334432   -0.012239   -0.021401   -0.130919
H     1.989437   -1.476471    0.577738    0.106367    0.173164    1.109258
H    -0.259724   -2.267128    0.472455   -0.013943   -0.024507   -0.154952
H     2.450499    0.994240    0.285175    0.144280    0.228143    1.487492
H    -1.800727    1.467466    0.148306    0.014081    0.021633    0.134960
H    -2.475492   -1.808172    0.679049    0.003677    0.003331    0.020376
13
* Frequency(19)  831.2200
C     1.382665    0.516789   -0.175107   -0.031870   -0.048700   -0.322291
C     1.162218   -0.788043    0.103803   -0.017001   -0.023751   -0.162378
N    -0.114026   -1.258259    0.382548    0.006223    0.010996    0.072731
C    -1.174101   -0.447296    0.332110   -0.000310   -0.000908   -0.007781
N    -0.985195    0.848988    0.083212   -0.008756   -0.014665   -0.095920
C     0.300812    1.501663    0.063979    0.045047    0.071780    0.473504
O    -2.392241   -0.849610    0.516492    0.001528    0.000487    0.001816
O     0.334589    2.665190   -0.335677   -0.012239   -0.021401   -0.130919
H     1.990449   -1.474823    0.588292    0.106367    0.173164    1.109258
H    -0.259857   -2.267362    0.470980   -0.013943   -0.024507   -0.154952
H     2.451872    0.996411    0.299327    0.144280    0.228143    1.487492
H    -1.800593    1.467672    0.149590    0.014081    0.021633    0.134960
H    -2.475457   -1.808140    0.679243    0.003677    0.003331    0.020376
13
* Frequency(19)  831.2200
C     1.383566    0.518166   -0.165992   -0.031870   -0.048700   -0.322291
C     1.162699   -0.787371    0.108396   -0.017001   -0.023751   -0.162378
N    -0.114202   -1.258570    0.380491    0.006223    0.010996    0.072731
C    -1.174092   -0.447270    0.332330   -0.000310   -0.000908   -0.007781
N    -0.984947    0.849403    0.085925   -0.008756   -0.014665   -0.095920
C     0.299538    1.499633    0.050586    0.045047    0.071780    0.473504
O    -2.392285   -0.849623    0.516441    0.001528    0.000487    0.001816
O     0.334935    2.665795   -0.331974   -0.012239   -0.021401   -0.130919
H     1.987441   -1.479721    0.556918    0.106367    0.173164    1.109258
H    -0.259462   -2.266668    0.475363   -0.013943   -0.024507   -0.154952
H     2.447791    0.989958    0.257255    0.144280    0.228143    1.487492
H    -1.800991    1.467060    0.145773    0.014081    0.021633    0.134960
H    -2.475561   -1.808234    0.678667    0.003677    0.003331    0.020376
13
* Frequency(19)  831.2200
C     1.385575    0.521235   -0.145682   -0.031870   -0.048700   -0.322291
C     1.163770   -0.785874    0.118628   -0.017001   -0.023751   -0.162378
N    -0.114594   -1.259262    0.375908    0.006223    0.010996    0.072731
C    -1.174073   -0.447213    0.332820   -0.000310   -0.000908   -0.007781
N    -0.984396    0.850327    0.091969   -0.008756   -0.014665   -0.095920
C     0.296700    1.495109    0.020747    0.045047    0.071780    0.473504
O    -2.392381   -0.849654    0.516327    0.001528    0.000487    0.001816
O     0.335707    2.667144   -0.323724   -0.012239   -0.021401   -0.130919
H     1.980738   -1.490633    0.487016    0.106367    0.173164    1.109258
H    -0.258584   -2.265124    0.485128   -0.013943   -0.024507   -0.154952
H     2.438699    0.975581    0.163518    0.144280    0.228143    1.487492
H    -1.801879    1.465697    0.137268    0.014081    0.021633    0.134960
H    -2.475793   -1.808444    0.677383    0.003677    0.003331    0.020376
13
* Frequency(19)  831.2200
C     1.388472    0.525663   -0.116378   -0.031870   -0.048700   -0.322291
C     1.165316   -0.783715    0.133392   -0.017001   -0.023751   -0.162378
N    -0.115160   -1.260262    0.369295    0.006223    0.010996    0.072731
C    -1.174044   -0.447130    0.333528   -0.000310   -0.000908   -0.007781
N    -0.983600    0.851661    0.100690   -0.008756   -0.014665   -0.095920
C     0.292604    1.488583   -0.022304    0.045047    0.071780    0.473504
O    -2.392520   -0.849698    0.516162    0.001528    0.000487    0.001816
O     0.336819    2.669089   -0.311821   -0.012239   -0.021401   -0.130919
H     1.971067   -1.506378    0.386160    0.106367    0.173164    1.109258
H    -0.257316   -2.262896    0.499216   -0.013943   -0.024507   -0.154952
H     2.425581    0.954838    0.028272    0.144280    0.228143    1.487492
H    -1.803159    1.463730    0.124998    0.014081    0.021633    0.134960
H    -2.476127   -1.808747    0.675530    0.003677    0.003331    0.020376
13
* Frequency(19)  831.2200
C     1.391945    0.530970   -0.081257   -0.031870   -0.048700   -0.322291
C     1.167169   -0.781127    0.151087   -0.017001   -0.023751   -0.162378
N    -0.115838   -1.261460    0.361369    0.006223    0.010996    0.072731
C    -1.174011   -0.447031    0.334376   -0.000310   -0.000908   -0.007781
N    -0.982645    0.853259    0.111143   -0.008756   -0.014665   -0.095920
C     0.287695    1.480761   -0.073904    0.045047    0.071780    0.473504
O    -2.392686   -0.849751    0.515964    0.001528    0.000487    0.001816
O     0.338153    2.671422   -0.297554   -0.012239   -0.021401   -0.130919
H     1.959476   -1.525248    0.265280    0.106367    0.173164    1.109258
H    -0.255796   -2.260225    0.516102   -0.013943   -0.024507   -0.154952
H     2.409858    0.929976   -0.133825    0.144280    0.228143    1.487492
H    -1.804694    1.461373    0.110291    0.014081    0.021633    0.134960
H    -2.476528   -1.809110    0.673310    0.003677    0.003331    0.020376
13
* Frequency(19)  831.2200
C     1.395617    0.536581   -0.044124   -0.031870   -0.048700   -0.322291
C     1.169128   -0.778390    0.169795   -0.017001   -0.023751   -0.162378
N    -0.116555   -1.262727    0.352990    0.006223    0.010996    0.072731
C    -1.173975   -0.446927    0.335272   -0.000310   -0.000908   -0.007781
N    -0.981636    0.854949    0.122195   -0.008756   -0.014665   -0.095920
C     0.282505    1.472491   -0.128459    0.045047    0.071780    0.473504
O    -2.392862   -0.849807    0.515754    0.001528    0.000487    0.001816
O     0.339563    2.673887   -0.282470   -0.012239   -0.021401   -0.130919
H     1.947221   -1.545200    0.137476    0.106367    0.173164    1.109258
H    -0.254190   -2.257402    0.533955   -0.013943   -0.024507   -0.154952
H     2.393235    0.903691   -0.305208    0.144280    0.228143    1.487492
H    -1.806316    1.458880    0.094741    0.014081    0.021633    0.134960
H    -2.476952   -1.809493    0.670962    0.003677    0.003331    0.020376
13
* Frequency(19)  831.2200
C     1.399090    0.541888   -0.009003   -0.031870   -0.048700   -0.322291
C     1.170980   -0.775802    0.187490   -0.017001   -0.023751   -0.162378
N    -0.117233   -1.263926    0.345064    0.006223    0.010996    0.072731
C    -1.173941   -0.446828    0.336120   -0.000310   -0.000908   -0.007781
N    -0.980682    0.856547    0.132647   -0.008756   -0.014665   -0.095920
C     0.277596    1.464669   -0.180058    0.045047    0.071780    0.473504
O    -2.393029   -0.849860    0.515557    0.001528    0.000487    0.001816
O     0.340897    2.676220   -0.268203   -0.012239   -0.021401   -0.130919
H     1.935630   -1.564070    0.016596    0.106367    0.173164    1.109258
H    -0.252671   -2.254731    0.550840   -0.013943   -0.024507   -0.154952
H     2.377512    0.878829   -0.467305    0.144280    0.228143    1.487492
H    -1.807851    1.456523    0.080034    0.014081    0.021633    0.134960
H    -2.477352   -1.809856    0.668742    0.003677    0.003331    0.020376
13
* Frequency(19)  831.2200
C     1.401988    0.546316    0.020301   -0.031870   -0.048700   -0.322291
C     1.172526   -0.773643    0.202254   -0.017001   -0.023751   -0.162378
N    -0.117799   -1.264925    0.338451    0.006223    0.010996    0.072731
C    -1.173913   -0.446745    0.336828   -0.000310   -0.000908   -0.007781
N    -0.979886    0.857880    0.141369   -0.008756   -0.014665   -0.095920
C     0.273500    1.458142   -0.223110    0.045047    0.071780    0.473504
O    -2.393168   -0.849905    0.515391    0.001528    0.000487    0.001816
O     0.342010    2.678165   -0.256300   -0.012239   -0.021401   -0.130919
H     1.925959   -1.579814   -0.084260    0.106367    0.173164    1.109258
H    -0.251403   -2.252503    0.564929   -0.013943   -0.024507   -0.154952
H     2.364394    0.858086   -0.602551    0.144280    0.228143    1.487492
H    -1.809131    1.454556    0.067763    0.014081    0.021633    0.134960
H    -2.477687   -1.810159    0.666889    0.003677    0.003331    0.020376
13
* Frequency(19)  831.2200
C     1.403996    0.549385    0.040611   -0.031870   -0.048700   -0.322291
C     1.173598   -0.772146    0.212487   -0.017001   -0.023751   -0.162378
N    -0.118192   -1.265618    0.333868    0.006223    0.010996    0.072731
C    -1.173894   -0.446688    0.337318   -0.000310   -0.000908   -0.007781
N    -0.979334    0.858804    0.147413   -0.008756   -0.014665   -0.095920
C     0.270662    1.453619   -0.252949    0.045047    0.071780    0.473504
O    -2.393264   -0.849935    0.515277    0.001528    0.000487    0.001816
O     0.342781    2.679514   -0.248050   -0.012239   -0.021401   -0.130919
H     1.919256   -1.590727   -0.154162    0.106367    0.173164    1.109258
H    -0.250524   -2.250958    0.574693   -0.013943   -0.024507   -0.154952
H     2.355302    0.843709   -0.696288    0.144280    0.228143    1.487492
H    -1.810018    1.453193    0.059258    0.014081    0.021633    0.134960
H    -2.477919   -1.810369    0.665605    0.003677    0.003331    0.020376
13
* Frequency(19)  831.2200
C     1.404898    0.550763    0.049726   -0.031870   -0.048700   -0.322291
C     1.174078   -0.771474    0.217079   -0.017001   -0.023751   -0.162378
N    -0.118368   -1.265929    0.331811    0.006223    0.010996    0.072731
C    -1.173885   -0.446662    0.337538   -0.000310   -0.000908   -0.007781
N    -0.979087    0.859219    0.150126   -0.008756   -0.014665   -0.095920
C     0.269388    1.451589   -0.266342    0.045047    0.071780    0.473504
O    -2.393307   -0.849949    0.515226    0.001528    0.000487    0.001816
O     0.343127    2.680119   -0.244347   -0.012239   -0.021401   -0.130919
H     1.916247   -1.595624   -0.185537    0.106367    0.173164    1.109258
H    -0.250130   -2.250265    0.579076   -0.013943   -0.024507   -0.154952
H     2.351221    0.837256   -0.738360    0.144280    0.228143    1.487492
H    -1.810417    1.452581    0.055441    0.014081    0.021633    0.134960
H    -2.478023   -1.810463    0.665029    0.003677    0.003331    0.020376
13
* Frequency(19)  831.2200
C     1.404595    0.550299    0.046660   -0.031870   -0.048700   -0.322291
C     1.173917   -0.771700    0.215534   -0.017001   -0.023751   -0.162378
N    -0.118308   -1.265825    0.332503    0.006223    0.010996    0.072731
C    -1.173888   -0.446671    0.337464   -0.000310   -0.000908   -0.007781
N    -0.979170    0.859080    0.149214   -0.008756   -0.014665   -0.095920
C     0.269816    1.452271   -0.261837    0.045047    0.071780    0.473504
O    -2.393293   -0.849945    0.515243    0.001528    0.000487    0.001816
O     0.343011    2.679916   -0.245592   -0.012239   -0.021401   -0.130919
H     1.917259   -1.593977   -0.174983    0.106367    0.173164    1.109258
H    -0.250262   -2.250498    0.577602   -0.013943   -0.024507   -0.154952
H     2.352594    0.839427   -0.724208    0.144280    0.228143    1.487492
H    -1.810283    1.452787    0.056725    0.014081    0.021633    0.134960
H    -2.477988   -1.810432    0.665223    0.003677    0.003331    0.020376
13
* Frequency(19)  831.2200
C     1.403120    0.548045    0.031744   -0.031870   -0.048700   -0.322291
C     1.173130   -0.772799    0.208019   -0.017001   -0.023751   -0.162378
N    -0.118020   -1.265316    0.335869    0.006223    0.010996    0.072731
C    -1.173902   -0.446713    0.337104   -0.000310   -0.000908   -0.007781
N    -0.979575    0.858401    0.144774   -0.008756   -0.014665   -0.095920
C     0.271901    1.455594   -0.239922    0.045047    0.071780    0.473504
O    -2.393222   -0.849922    0.515327    0.001528    0.000487    0.001816
O     0.342444    2.678925   -0.251652   -0.012239   -0.021401   -0.130919
H     1.922182   -1.585963   -0.123644    0.106367    0.173164    1.109258
H    -0.250908   -2.251633    0.570430   -0.013943   -0.024507   -0.154952
H     2.359271    0.849986   -0.655364    0.144280    0.228143    1.487492
H    -1.809631    1.453788    0.062971    0.014081    0.021633    0.134960
H    -2.477817   -1.810277    0.666166    0.003677    0.003331    0.020376
13
* Frequency(19)  831.2200
C     1.400633    0.544245    0.006594   -0.031870   -0.048700   -0.322291
C     1.171803   -0.774653    0.195348   -0.017001   -0.023751   -0.162378
N    -0.117535   -1.264458    0.341544    0.006223    0.010996    0.072731
C    -1.173926   -0.446784    0.336497   -0.000310   -0.000908   -0.007781
N    -0.980259    0.857256    0.137289   -0.008756   -0.014665   -0.095920
C     0.275416    1.461195   -0.202973    0.045047    0.071780    0.473504
O    -2.393103   -0.849884    0.515469    0.001528    0.000487    0.001816
O     0.341489    2.677255   -0.261868   -0.012239   -0.021401   -0.130919
H     1.930482   -1.572450   -0.037084    0.106367    0.173164    1.109258
H    -0.251996   -2.253545    0.558339   -0.013943   -0.024507   -0.154952
H     2.370530    0.867789   -0.539289    0.144280    0.228143    1.487492
H    -1.808532    1.455476    0.073503    0.014081    0.021633    0.134960
H    -2.477530   -1.810018    0.667756    0.003677    0.003331    0.020376
13
* Frequency(19)  831.2200
C     1.397403    0.539310   -0.026064   -0.031870   -0.048700   -0.322291
C     1.170080   -0.777059    0.178895   -0.017001   -0.023751   -0.162378
N    -0.116904   -1.263343    0.348914    0.006223    0.010996    0.072731
C    -1.173958   -0.446876    0.335708   -0.000310   -0.000908   -0.007781
N    -0.981146    0.855770    0.127570   -0.008756   -0.014665   -0.095920
C     0.279981    1.468468   -0.154993    0.045047    0.071780    0.473504
O    -2.392948   -0.849835    0.515653    0.001528    0.000487    0.001816
O     0.340249    2.675087   -0.275134   -0.012239   -0.021401   -0.130919
H     1.941260   -1.554903    0.075316    0.106367    0.173164    1.109258
H    -0.253409   -2.256028    0.542638   -0.013943   -0.024507   -0.154952
H     2.385150    0.890906   -0.388562    0.144280    0.228143    1.487492
H    -1.807105    1.457668    0.087178    0.014081    0.021633    0.134960
H    -2.477158   -1.809680    0.669820    0.003677    0.003331    0.020376
13
* Frequency(19)  831.2200
C     1.393781    0.533776   -0.062691   -0.031870   -0.048700   -0.322291
C     1.168148   -0.779758    0.160441   -0.017001   -0.023751   -0.162378
N    -0.116197   -1.262094    0.357179    0.006223    0.010996    0.072731
C    -1.173993   -0.446979    0.334824   -0.000310   -0.000908   -0.007781
N    -0.982141    0.854104    0.116669   -0.008756   -0.014665   -0.095920
C     0.285100    1.476626   -0.101181    0.045047    0.071780    0.473504
O    -2.392774   -0.849779    0.515859    0.001528    0.000487    0.001816
O     0.338858    2.672655   -0.290012   -0.012239   -0.021401   -0.130919
H     1.953348   -1.535224    0.201378    0.106367    0.173164    1.109258
H    -0.254993   -2.258813    0.525028   -0.013943   -0.024507   -0.154952
H     2.401547    0.916834   -0.219517    0.144280    0.228143    1.487492
H    -1.805505    1.460126    0.102516    0.014081    0.021633    0.134960
H    -2.476740   -1.809302    0.672136    0.003677    0.003331    0.020376
