13
* (null), Energy   -1000.0000000
C     1.393781    0.533776   -0.062691    0.001225    0.002194   -0.000458
C     1.168148   -0.779758    0.160441    0.002191    0.000881   -0.000403
N    -0.116197   -1.262094    0.357179   -0.019104   -0.146419    0.024538
C    -1.173993   -0.446979    0.334824   -0.001197    0.002031   -0.000241
N    -0.982141    0.854104    0.116669   -0.019132    0.016895   -0.000748
C     0.285100    1.476626   -0.101181   -0.000199   -0.002024    0.000337
O    -2.392774   -0.849779    0.515859   -0.000096    0.006213   -0.000974
O     0.338858    2.672655   -0.290012    0.000017    0.001160   -0.000159
H     1.953348   -1.535224    0.201378   -0.007409    0.006449   -0.000367
H    -0.254993   -2.258813    0.525028    0.268231    1.921384   -0.322826
H     2.401547    0.916834   -0.219517   -0.002223   -0.000127    0.000230
H    -1.805505    1.460126    0.102516    0.254831   -0.185677    0.004117
H    -2.476740   -1.809302    0.672136   -0.004918   -0.095944    0.015368
13
* Frequency(37) 3554.0806
C     1.393921    0.534025   -0.062743    0.001225    0.002194   -0.000458
C     1.168397   -0.779658    0.160395    0.002191    0.000881   -0.000403
N    -0.118368   -1.278734    0.359968   -0.019104   -0.146419    0.024538
C    -1.174129   -0.446748    0.334797   -0.001197    0.002031   -0.000241
N    -0.984315    0.856024    0.116584   -0.019132    0.016895   -0.000748
C     0.285077    1.476396   -0.101143   -0.000199   -0.002024    0.000337
O    -2.392785   -0.849073    0.515748   -0.000096    0.006213   -0.000974
O     0.338860    2.672786   -0.290030    0.000017    0.001160   -0.000159
H     1.952506   -1.534491    0.201336   -0.007409    0.006449   -0.000367
H    -0.224510   -2.040458    0.488341    0.268231    1.921384   -0.322826
H     2.401294    0.916819   -0.219490   -0.002223   -0.000127    0.000230
H    -1.776545    1.439025    0.102984    0.254831   -0.185677    0.004117
H    -2.477299   -1.820205    0.673883   -0.004918   -0.095944    0.015368
13
* Frequency(37) 3554.0806
C     1.394045    0.534247   -0.062789    0.001225    0.002194   -0.000458
C     1.168619   -0.779569    0.160354    0.002191    0.000881   -0.000403
N    -0.120304   -1.293570    0.362455   -0.019104   -0.146419    0.024538
C    -1.174250   -0.446542    0.334772   -0.001197    0.002031   -0.000241
N    -0.986254    0.857736    0.116508   -0.019132    0.016895   -0.000748
C     0.285057    1.476191   -0.101109   -0.000199   -0.002024    0.000337
O    -2.392795   -0.848444    0.515650   -0.000096    0.006213   -0.000974
O     0.338862    2.672904   -0.290046    0.000017    0.001160   -0.000159
H     1.951756   -1.533837    0.201299   -0.007409    0.006449   -0.000367
H    -0.197330   -1.845765    0.455629    0.268231    1.921384   -0.322826
H     2.401069    0.916806   -0.219467   -0.002223   -0.000127    0.000230
H    -1.750723    1.420211    0.103401    0.254831   -0.185677    0.004117
H    -2.477797   -1.829927    0.675440   -0.004918   -0.095944    0.015368
13
* Frequency(37) 3554.0806
C     1.394140    0.534419   -0.062825    0.001225    0.002194   -0.000458
C     1.168790   -0.779500    0.160323    0.002191    0.000881   -0.000403
N    -0.121794   -1.304996    0.364369   -0.019104   -0.146419    0.024538
C    -1.174344   -0.446384    0.334753   -0.001197    0.002031   -0.000241
N    -0.987747    0.859054    0.116450   -0.019132    0.016895   -0.000748
C     0.285042    1.476033   -0.101083   -0.000199   -0.002024    0.000337
O    -2.392802   -0.847959    0.515574   -0.000096    0.006213   -0.000974
O     0.338863    2.672994   -0.290059    0.000017    0.001160   -0.000159
H     1.951177   -1.533334    0.201270   -0.007409    0.006449   -0.000367
H    -0.176399   -1.695832    0.430438    0.268231    1.921384   -0.322826
H     2.400895    0.916796   -0.219449   -0.002223   -0.000127    0.000230
H    -1.730837    1.405721    0.103722    0.254831   -0.185677    0.004117
H    -2.478181   -1.837414    0.676639   -0.004918   -0.095944    0.015368
13
* Frequency(37) 3554.0806
C     1.394197    0.534520   -0.062846    0.001225    0.002194   -0.000458
C     1.168892   -0.779459    0.160304    0.002191    0.000881   -0.000403
N    -0.122679   -1.311772    0.365505   -0.019104   -0.146419    0.024538
C    -1.174399   -0.446290    0.334742   -0.001197    0.002031   -0.000241
N    -0.988632    0.859836    0.116415   -0.019132    0.016895   -0.000748
C     0.285033    1.475939   -0.101067   -0.000199   -0.002024    0.000337
O    -2.392807   -0.847671    0.515529   -0.000096    0.006213   -0.000974
O     0.338864    2.673048   -0.290066    0.000017    0.001160   -0.000159
H     1.950835   -1.533036    0.201253   -0.007409    0.006449   -0.000367
H    -0.163985   -1.606907    0.415497    0.268231    1.921384   -0.322826
H     2.400792    0.916790   -0.219439   -0.002223   -0.000127    0.000230
H    -1.719043    1.397128    0.103913    0.254831   -0.185677    0.004117
H    -2.478408   -1.841854    0.677350   -0.004918   -0.095944    0.015368
13
* Frequency(37) 3554.0806
C     1.394209    0.534541   -0.062850    0.001225    0.002194   -0.000458
C     1.168912   -0.779451    0.160301    0.002191    0.000881   -0.000403
N    -0.122860   -1.313166    0.365739   -0.019104   -0.146419    0.024538
C    -1.174411   -0.446270    0.334740   -0.001197    0.002031   -0.000241
N    -0.988814    0.859997    0.116408   -0.019132    0.016895   -0.000748
C     0.285031    1.475920   -0.101064   -0.000199   -0.002024    0.000337
O    -2.392808   -0.847612    0.515519   -0.000096    0.006213   -0.000974
O     0.338864    2.673059   -0.290068    0.000017    0.001160   -0.000159
H     1.950764   -1.532974    0.201250   -0.007409    0.006449   -0.000367
H    -0.161433   -1.588626    0.412425    0.268231    1.921384   -0.322826
H     2.400771    0.916789   -0.219436   -0.002223   -0.000127    0.000230
H    -1.716619    1.395361    0.103952    0.254831   -0.185677    0.004117
H    -2.478455   -1.842767    0.677496   -0.004918   -0.095944    0.015368
13
* Frequency(37) 3554.0806
C     1.394174    0.534479   -0.062837    0.001225    0.002194   -0.000458
C     1.168850   -0.779476    0.160312    0.002191    0.000881   -0.000403
N    -0.122320   -1.309024    0.365045   -0.019104   -0.146419    0.024538
C    -1.174377   -0.446328    0.334747   -0.001197    0.002031   -0.000241
N    -0.988273    0.859519    0.116429   -0.019132    0.016895   -0.000748
C     0.285036    1.475977   -0.101073   -0.000199   -0.002024    0.000337
O    -2.392805   -0.847788    0.515547   -0.000096    0.006213   -0.000974
O     0.338864    2.673026   -0.290063    0.000017    0.001160   -0.000159
H     1.950974   -1.533157    0.201260   -0.007409    0.006449   -0.000367
H    -0.169020   -1.642970    0.421556    0.268231    1.921384   -0.322826
H     2.400834    0.916793   -0.219443   -0.002223   -0.000127    0.000230
H    -1.723826    1.400613    0.103835    0.254831   -0.185677    0.004117
H    -2.478316   -1.840054    0.677062   -0.004918   -0.095944    0.015368
13
* Frequency(37) 3554.0806
C     1.394097    0.534341   -0.062808    0.001225    0.002194   -0.000458
C     1.168712   -0.779532    0.160337    0.002191    0.000881   -0.000403
N    -0.121116   -1.299797    0.363498   -0.019104   -0.146419    0.024538
C    -1.174301   -0.446456    0.334762   -0.001197    0.002031   -0.000241
N    -0.987068    0.858454    0.116476   -0.019132    0.016895   -0.000748
C     0.285049    1.476105   -0.101095   -0.000199   -0.002024    0.000337
O    -2.392799   -0.848179    0.515608   -0.000096    0.006213   -0.000974
O     0.338863    2.672953   -0.290053    0.000017    0.001160   -0.000159
H     1.951440   -1.533563    0.201283   -0.007409    0.006449   -0.000367
H    -0.185923   -1.764051    0.441899    0.268231    1.921384   -0.322826
H     2.400974    0.916801   -0.219457   -0.002223   -0.000127    0.000230
H    -1.739885    1.412314    0.103576    0.254831   -0.185677    0.004117
H    -2.478006   -1.834007    0.676093   -0.004918   -0.095944    0.015368
13
* Frequency(37) 3554.0806
C     1.393985    0.534141   -0.062767    0.001225    0.002194   -0.000458
C     1.168513   -0.779612    0.160374    0.002191    0.000881   -0.000403
N    -0.119379   -1.286485    0.361267   -0.019104   -0.146419    0.024538
C    -1.174192   -0.446641    0.334784   -0.001197    0.002031   -0.000241
N    -0.985328    0.856918    0.116544   -0.019132    0.016895   -0.000748
C     0.285067    1.476289   -0.101125   -0.000199   -0.002024    0.000337
O    -2.392790   -0.848744    0.515697   -0.000096    0.006213   -0.000974
O     0.338861    2.672848   -0.290039    0.000017    0.001160   -0.000159
H     1.952114   -1.534150    0.201317   -0.007409    0.006449   -0.000367
H    -0.210311   -1.938746    0.471251    0.268231    1.921384   -0.322826
H     2.401176    0.916812   -0.219478   -0.002223   -0.000127    0.000230
H    -1.763055    1.429196    0.103202    0.254831   -0.185677    0.004117
H    -2.477559   -1.825284    0.674696   -0.004918   -0.095944    0.015368
13
* Frequency(37) 3554.0806
C     1.393852    0.533902   -0.062717    0.001225    0.002194   -0.000458
C     1.168275   -0.779708    0.160418    0.002191    0.000881   -0.000403
N    -0.117297   -1.270529    0.358593   -0.019104   -0.146419    0.024538
C    -1.174062   -0.446862    0.334810   -0.001197    0.002031   -0.000241
N    -0.983243    0.855077    0.116626   -0.019132    0.016895   -0.000748
C     0.285089    1.476509   -0.101162   -0.000199   -0.002024    0.000337
O    -2.392780   -0.849421    0.515803   -0.000096    0.006213   -0.000974
O     0.338859    2.672721   -0.290021    0.000017    0.001160   -0.000159
H     1.952921   -1.534852    0.201357   -0.007409    0.006449   -0.000367
H    -0.239541   -2.148126    0.506431    0.268231    1.921384   -0.322826
H     2.401418    0.916826   -0.219503   -0.002223   -0.000127    0.000230
H    -1.790825    1.449430    0.102753    0.254831   -0.185677    0.004117
H    -2.477023   -1.814829    0.673021   -0.004918   -0.095944    0.015368
13
* Frequency(37) 3554.0806
C     1.393711    0.533649   -0.062664    0.001225    0.002194   -0.000458
C     1.168022   -0.779809    0.160464    0.002191    0.000881   -0.000403
N    -0.115096   -1.253659    0.355766   -0.019104   -0.146419    0.024538
C    -1.173924   -0.447096    0.334838   -0.001197    0.002031   -0.000241
N    -0.981039    0.853130    0.116712   -0.019132    0.016895   -0.000748
C     0.285112    1.476742   -0.101201   -0.000199   -0.002024    0.000337
O    -2.392769   -0.850137    0.515915   -0.000096    0.006213   -0.000974
O     0.338857    2.672588   -0.290003    0.000017    0.001160   -0.000159
H     1.953775   -1.535595    0.201399   -0.007409    0.006449   -0.000367
H    -0.270446   -2.369501    0.543625    0.268231    1.921384   -0.322826
H     2.401675    0.916841   -0.219530   -0.002223   -0.000127    0.000230
H    -1.820185    1.470823    0.102279    0.254831   -0.185677    0.004117
H    -2.476457   -1.803774    0.671251   -0.004918   -0.095944    0.015368
13
* Frequency(37) 3554.0806
C     1.393577    0.533410   -0.062614    0.001225    0.002194   -0.000458
C     1.167783   -0.779905    0.160508    0.002191    0.000881   -0.000403
N    -0.113014   -1.237703    0.353092   -0.019104   -0.146419    0.024538
C    -1.173793   -0.447317    0.334864   -0.001197    0.002031   -0.000241
N    -0.978954    0.851289    0.116794   -0.019132    0.016895   -0.000748
C     0.285133    1.476963   -0.101238   -0.000199   -0.002024    0.000337
O    -2.392758   -0.850814    0.516021   -0.000096    0.006213   -0.000974
O     0.338855    2.672461   -0.289985    0.000017    0.001160   -0.000159
H     1.954582   -1.536298    0.201439   -0.007409    0.006449   -0.000367
H    -0.299676   -2.578881    0.578805    0.268231    1.921384   -0.322826
H     2.401917    0.916855   -0.219555   -0.002223   -0.000127    0.000230
H    -1.847955    1.491057    0.101830    0.254831   -0.185677    0.004117
H    -2.475921   -1.793319    0.669576   -0.004918   -0.095944    0.015368
13
* Frequency(37) 3554.0806
C     1.393466    0.533211   -0.062573    0.001225    0.002194   -0.000458
C     1.167584   -0.779985    0.160545    0.002191    0.000881   -0.000403
N    -0.111277   -1.224390    0.350861   -0.019104   -0.146419    0.024538
C    -1.173685   -0.447502    0.334886   -0.001197    0.002031   -0.000241
N    -0.977214    0.849753    0.116862   -0.019132    0.016895   -0.000748
C     0.285151    1.477147   -0.101268   -0.000199   -0.002024    0.000337
O    -2.392749   -0.851379    0.516110   -0.000096    0.006213   -0.000974
O     0.338854    2.672356   -0.289971    0.000017    0.001160   -0.000159
H     1.955256   -1.536885    0.201472   -0.007409    0.006449   -0.000367
H    -0.324064   -2.753576    0.608157    0.268231    1.921384   -0.322826
H     2.402119    0.916866   -0.219576   -0.002223   -0.000127    0.000230
H    -1.871125    1.507939    0.101456    0.254831   -0.185677    0.004117
H    -2.475474   -1.784596    0.668179   -0.004918   -0.095944    0.015368
13
* Frequency(37) 3554.0806
C     1.393389    0.533072   -0.062544    0.001225    0.002194   -0.000458
C     1.167446   -0.780041    0.160570    0.002191    0.000881   -0.000403
N    -0.110074   -1.215163    0.349314   -0.019104   -0.146419    0.024538
C    -1.173609   -0.447630    0.334901   -0.001197    0.002031   -0.000241
N    -0.976009    0.848689    0.116909   -0.019132    0.016895   -0.000748
C     0.285164    1.477274   -0.101290   -0.000199   -0.002024    0.000337
O    -2.392743   -0.851771    0.516171   -0.000096    0.006213   -0.000974
O     0.338853    2.672283   -0.289961    0.000017    0.001160   -0.000159
H     1.955723   -1.537291    0.201495   -0.007409    0.006449   -0.000367
H    -0.340967   -2.874657    0.628500    0.268231    1.921384   -0.322826
H     2.402259    0.916874   -0.219590   -0.002223   -0.000127    0.000230
H    -1.887184    1.519640    0.101196    0.254831   -0.185677    0.004117
H    -2.475164   -1.778550    0.667210   -0.004918   -0.095944    0.015368
13
* Frequency(37) 3554.0806
C     1.393354    0.533010   -0.062531    0.001225    0.002194   -0.000458
C     1.167384   -0.780066    0.160582    0.002191    0.000881   -0.000403
N    -0.109533   -1.211022    0.348620   -0.019104   -0.146419    0.024538
C    -1.173575   -0.447688    0.334908   -0.001197    0.002031   -0.000241
N    -0.975467    0.848211    0.116930   -0.019132    0.016895   -0.000748
C     0.285169    1.477332   -0.101299   -0.000199   -0.002024    0.000337
O    -2.392741   -0.851947    0.516199   -0.000096    0.006213   -0.000974
O     0.338852    2.672250   -0.289956    0.000017    0.001160   -0.000159
H     1.955932   -1.537473    0.201506   -0.007409    0.006449   -0.000367
H    -0.348553   -2.929001    0.637631    0.268231    1.921384   -0.322826
H     2.402322    0.916878   -0.219597   -0.002223   -0.000127    0.000230
H    -1.894391    1.524891    0.101080    0.254831   -0.185677    0.004117
H    -2.475025   -1.775836    0.666776   -0.004918   -0.095944    0.015368
13
* Frequency(37) 3554.0806
C     1.393366    0.533031   -0.062535    0.001225    0.002194   -0.000458
C     1.167405   -0.780058    0.160578    0.002191    0.000881   -0.000403
N    -0.109715   -1.212415    0.348854   -0.019104   -0.146419    0.024538
C    -1.173587   -0.447668    0.334906   -0.001197    0.002031   -0.000241
N    -0.975649    0.848371    0.116923   -0.019132    0.016895   -0.000748
C     0.285167    1.477312   -0.101296   -0.000199   -0.002024    0.000337
O    -2.392742   -0.851887    0.516189   -0.000096    0.006213   -0.000974
O     0.338852    2.672261   -0.289958    0.000017    0.001160   -0.000159
H     1.955862   -1.537412    0.201502   -0.007409    0.006449   -0.000367
H    -0.346001   -2.910720    0.634560    0.268231    1.921384   -0.322826
H     2.402301    0.916877   -0.219594   -0.002223   -0.000127    0.000230
H    -1.891967    1.523125    0.101119    0.254831   -0.185677    0.004117
H    -2.475071   -1.776749    0.666922   -0.004918   -0.095944    0.015368
13
* Frequency(37) 3554.0806
C     1.393423    0.533133   -0.062556    0.001225    0.002194   -0.000458
C     1.167506   -0.780017    0.160559    0.002191    0.000881   -0.000403
N    -0.110599   -1.219192    0.349990   -0.019104   -0.146419    0.024538
C    -1.173642   -0.447574    0.334895   -0.001197    0.002031   -0.000241
N    -0.976535    0.849153    0.116888   -0.019132    0.016895   -0.000748
C     0.285158    1.477219   -0.101280   -0.000199   -0.002024    0.000337
O    -2.392746   -0.851600    0.516144   -0.000096    0.006213   -0.000974
O     0.338853    2.672315   -0.289965    0.000017    0.001160   -0.000159
H     1.955519   -1.537114    0.201485   -0.007409    0.006449   -0.000367
H    -0.333587   -2.821795    0.619619    0.268231    1.921384   -0.322826
H     2.402198    0.916871   -0.219584   -0.002223   -0.000127    0.000230
H    -1.880173    1.514531    0.101309    0.254831   -0.185677    0.004117
H    -2.475299   -1.781189    0.667633   -0.004918   -0.095944    0.015368
13
* Frequency(37) 3554.0806
C     1.393518    0.533304   -0.062592    0.001225    0.002194   -0.000458
C     1.167677   -0.779948    0.160528    0.002191    0.000881   -0.000403
N    -0.112090   -1.230617    0.351904   -0.019104   -0.146419    0.024538
C    -1.173735   -0.447416    0.334876   -0.001197    0.002031   -0.000241
N    -0.978028    0.850472    0.116830   -0.019132    0.016895   -0.000748
C     0.285143    1.477061   -0.101254   -0.000199   -0.002024    0.000337
O    -2.392754   -0.851115    0.516068   -0.000096    0.006213   -0.000974
O     0.338854    2.672405   -0.289978    0.000017    0.001160   -0.000159
H     1.954941   -1.536610    0.201457   -0.007409    0.006449   -0.000367
H    -0.312656   -2.671862    0.594427    0.268231    1.921384   -0.322826
H     2.402024    0.916861   -0.219566   -0.002223   -0.000127    0.000230
H    -1.860287    1.500042    0.101631    0.254831   -0.185677    0.004117
H    -2.475683   -1.788676    0.668832   -0.004918   -0.095944    0.015368
13
* Frequency(37) 3554.0806
C     1.393642    0.533526   -0.062638    0.001225    0.002194   -0.000458
C     1.167899   -0.779859    0.160487    0.002191    0.000881   -0.000403
N    -0.114026   -1.245454    0.354391   -0.019104   -0.146419    0.024538
C    -1.173857   -0.447210    0.334852   -0.001197    0.002031   -0.000241
N    -0.979967    0.852184    0.116754   -0.019132    0.016895   -0.000748
C     0.285123    1.476856   -0.101220   -0.000199   -0.002024    0.000337
O    -2.392763   -0.850485    0.515970   -0.000096    0.006213   -0.000974
O     0.338856    2.672523   -0.289994    0.000017    0.001160   -0.000159
H     1.954190   -1.535957    0.201420   -0.007409    0.006449   -0.000367
H    -0.285476   -2.477169    0.561716    0.268231    1.921384   -0.322826
H     2.401799    0.916848   -0.219543   -0.002223   -0.000127    0.000230
H    -1.834465    1.481228    0.102048    0.254831   -0.185677    0.004117
H    -2.476181   -1.798398    0.670390   -0.004918   -0.095944    0.015368
13
* Frequency(37) 3554.0806
C     1.393781    0.533776   -0.062691    0.001225    0.002194   -0.000458
C     1.168148   -0.779758    0.160441    0.002191    0.000881   -0.000403
N    -0.116197   -1.262094    0.357179   -0.019104   -0.146419    0.024538
C    -1.173993   -0.446979    0.334824   -0.001197    0.002031   -0.000241
N    -0.982141    0.854104    0.116669   -0.019132    0.016895   -0.000748
C     0.285100    1.476626   -0.101181   -0.000199   -0.002024    0.000337
O    -2.392774   -0.849779    0.515859   -0.000096    0.006213   -0.000974
O     0.338858    2.672655   -0.290012    0.000017    0.001160   -0.000159
H     1.953348   -1.535224    0.201378   -0.007409    0.006449   -0.000367
H    -0.254993   -2.258813    0.525028    0.268231    1.921384   -0.322826
H     2.401547    0.916834   -0.219517   -0.002223   -0.000127    0.000230
H    -1.805505    1.460126    0.102516    0.254831   -0.185677    0.004117
H    -2.476740   -1.809302    0.672136   -0.004918   -0.095944    0.015368
