
                                 *****************
                                 * O   R   C   A *
                                 *****************

           --- An Ab Initio, DFT and Semiempirical electronic structure package ---

                  #######################################################
                  #                        -***-                        #
                  #          Department of theory and spectroscopy      #
                  #               Directorship: Frank Neese             #
                  #        Max Planck Institute fuer Kohlenforschung    #
                  #                Kaiser Wilhelm Platz 1               #
                  #                 D-45470 Muelheim/Ruhr               #
                  #                      Germany                        #
                  #                                                     #
                  #                  All rights reserved                #
                  #                        -***-                        #
                  #######################################################


                         Program Version 4.2.1 -  RELEASE  -


 With contributions from (in alphabetic order):
   Daniel Aravena         : Magnetic Suceptibility
   Michael Atanasov       : Ab Initio Ligand Field Theory (pilot matlab implementation)
   Alexander A. Auer      : GIAO ZORA, VPT2
   Ute Becker             : Parallelization
   Giovanni Bistoni       : ED, misc. LED, open-shell LED, HFLD
   Martin Brehm           : Molecular dynamics
   Dmytro Bykov           : SCF Hessian
   Vijay G. Chilkuri      : MRCI spin determinant printing, contributions to CSF-ICE
   Dipayan Datta          : RHF DLPNO-CCSD density
   Achintya Kumar Dutta   : EOM-CC, STEOM-CC
   Dmitry Ganyushin       : Spin-Orbit,Spin-Spin,Magnetic field MRCI
   Miquel Garcia          : C-PCM Hessian, Gaussian charge scheme
   Yang Guo               : DLPNO-NEVPT2, CIM, IAO-localization
   Andreas Hansen         : Spin unrestricted coupled pair/coupled cluster methods
   Benjamin Helmich-Paris : CASSCF linear response (MC-RPA)
   Lee Huntington         : MR-EOM, pCC
   Robert Izsak           : Overlap fitted RIJCOSX, COSX-SCS-MP3, EOM
   Christian Kollmar      : KDIIS, OOCD, Brueckner-CCSD(T), CCSD density
   Simone Kossmann        : Meta GGA functionals, TD-DFT gradient, OOMP2, MP2 Hessian
   Martin Krupicka        : AUTO-CI
   Lucas Lang             : DCDCAS
   Dagmar Lenk            : GEPOL surface, SMD
   Dimitrios Liakos       : Extrapolation schemes; Compound Job, initial MDCI parallelization
   Dimitrios Manganas     : Further ROCIS development; embedding schemes
   Dimitrios Pantazis     : SARC Basis sets
   Taras Petrenko         : DFT Hessian,TD-DFT gradient, ASA, ECA, R-Raman, ABS, FL, XAS/XES, NRVS
   Peter Pinski           : DLPNO-MP2, DLPNO-MP2 Gradient
   Christoph Reimann      : Effective Core Potentials
   Marius Retegan         : Local ZFS, SOC
   Christoph Riplinger    : Optimizer, TS searches, QM/MM, DLPNO-CCSD(T), (RO)-DLPNO pert. Triples
   Tobias Risthaus        : Range-separated hybrids, TD-DFT gradient, RPA, STAB
   Michael Roemelt        : Original ROCIS implementation
   Masaaki Saitow         : Open-shell DLPNO-CCSD energy and density
   Barbara Sandhoefer     : DKH picture change effects
   Avijit Sen             : IP-ROCIS
   Kantharuban Sivalingam : CASSCF convergence, NEVPT2, FIC-MRCI
   Bernardo de Souza      : ESD, SOC TD-DFT
   Georgi Stoychev        : AutoAux, RI-MP2 NMR
   Willem Van den Heuvel  : Paramagnetic NMR
   Boris Wezisla          : Elementary symmetry handling
   Frank Wennmohs         : Technical directorship


 We gratefully acknowledge several colleagues who have allowed us to
 interface, adapt or use parts of their codes:
   Stefan Grimme, W. Hujo, H. Kruse,             : VdW corrections, initial TS optimization,
                  C. Bannwarth                     DFT functionals, gCP, sTDA/sTD-DF
   Ed Valeev, F. Pavosevic, A. Kumar             : LibInt (2-el integral package), F12 methods
   Garnet Chan, S. Sharma, J. Yang, R. Olivares  : DMRG
   Ulf Ekstrom                                   : XCFun DFT Library
   Mihaly Kallay                                 : mrcc  (arbitrary order and MRCC methods)
   Andreas Klamt, Michael Diedenhofen            : otool_cosmo (COSMO solvation model)
   Jiri Pittner, Ondrej Demel                    : Mk-CCSD
   Frank Weinhold                                : gennbo (NPA and NBO analysis)
   Christopher J. Cramer and Donald G. Truhlar   : smd solvation model
   Lars Goerigk                                  : TD-DFT with DH, B97 family of functionals
   V. Asgeirsson, H. Jonsson                     : NEB implementation
   FAccTs GmbH                                   : IRC, NEB, NEB-TS, Multilevel, MM, QM/MM, CI optimization
   S Lehtola, MJT Oliveira, MAL Marques          : LibXC Library


 Your calculation uses the libint2 library for the computation of 2-el integrals
 For citations please refer to: http://libint.valeyev.net

 Your ORCA version has been built with support for libXC version: 4.2.3
 For citations please refer to: https://tddft.org/programs/libxc/

 This ORCA versions uses:
   CBLAS   interface :  Fast vector & matrix operations
   LAPACKE interface :  Fast linear algebra routines
   SCALAPACK package :  Parallel linear algebra routines


----- Orbital basis set information -----
Your calculation utilizes the basis: def2-SVP
   F. Weigend and R. Ahlrichs, Phys. Chem. Chem. Phys. 7, 3297 (2005).

================================================================================
                                        WARNINGS
                       Please study these warnings very carefully!
================================================================================


WARNING: Geometry Optimization
  ===> : Switching off AutoStart
         For restart on a previous wavefunction, please use MOREAD

INFO   : the flag for use of LIBINT has been found!

================================================================================
                                       INPUT FILE
================================================================================
NAME = Uracil_1.inp
|  1> !B3LYP def2-SVP OPT FREQ CPCM(water)
|  2> %pal
|  3> nprocs 16
|  4> end
|  5> * xyz 1 1
|  6>    C        1.39943        0.51664       -0.05843
|  7>    C        1.16131       -0.78457        0.16422
|  8>    N       -0.10300       -1.27620        0.36247
|  9>    C       -1.16293       -0.43280        0.32977
| 10>    N       -1.00304        0.89353        0.10956
| 11>    C        0.23600        1.45365       -0.09250
| 12>    O       -2.43331       -0.86996        0.51881
| 13>    O        0.40342        2.65219       -0.29244
| 14>    H        1.95781       -1.52043        0.19988
| 15>    H       -0.23682       -2.26702        0.50621
| 16>    H        2.38347        0.93296       -0.21707
| 17>    H       -1.81105        1.49705        0.09205
| 18>    H       -2.45285       -1.82287        0.69010
| 19> *
| 20> 
| 21> 
| 22>                          ****END OF INPUT****
================================================================================

                       *****************************
                       * Geometry Optimization Run *
                       *****************************

Geometry optimization settings:
Update method            Update   .... BFGS
Choice of coordinates    CoordSys .... Z-matrix Internals
Initial Hessian          InHess   .... Almoef's Model

Convergence Tolerances:
Energy Change            TolE     ....  5.0000e-06 Eh
Max. Gradient            TolMAXG  ....  3.0000e-04 Eh/bohr
RMS Gradient             TolRMSG  ....  1.0000e-04 Eh/bohr
Max. Displacement        TolMAXD  ....  4.0000e-03 bohr
RMS Displacement         TolRMSD  ....  2.0000e-03 bohr
Strict Convergence                ....  False
------------------------------------------------------------------------------
                        ORCA OPTIMIZATION COORDINATE SETUP
------------------------------------------------------------------------------

The optimization will be done in new redundant internal coordinates
Making redundant internal coordinates   ...  (new redundants) done
Evaluating the initial hessian          ...  (Almloef) done
Evaluating the coordinates              ...  done
Calculating the B-matrix                .... done
Calculating the G-matrix                .... done
Diagonalizing the G-matrix              .... done
The first mode is                       ....   25
The number of degrees of freedom        ....   33

    -----------------------------------------------------------------
                    Redundant Internal Coordinates


    -----------------------------------------------------------------
         Definition                    Initial Value    Approx d2E/dq
    -----------------------------------------------------------------
      1. B(C   1,C   0)                  1.3414         0.746855   
      2. B(N   2,C   1)                  1.3709         0.600179   
      3. B(C   3,N   2)                  1.3549         0.636535   
      4. B(N   4,C   3)                  1.3540         0.638814   
      5. B(C   5,N   4)                  1.3747         0.591965   
      6. B(C   5,C   0)                  1.4942         0.426039   
      7. B(O   6,C   3)                  1.3567         0.632352   
      8. B(O   7,C   5)                  1.2266         1.019996   
      9. B(H   8,C   1)                  1.0850         0.366807   
     10. B(H   9,N   2)                  1.0101         0.432556   
     11. B(H  10,C   0)                  1.0802         0.373306   
     12. B(H  11,N   4)                  1.0087         0.434821   
     13. B(H  12,O   6)                  0.9684         0.504193   
     14. A(C   1,C   0,H  10)          124.0519         0.366519   
     15. A(C   5,C   0,H  10)          117.6630         0.333407   
     16. A(C   1,C   0,C   5)          118.2849         0.419613   
     17. A(N   2,C   1,H   8)          115.4071         0.349907   
     18. A(C   0,C   1,H   8)          122.2107         0.365418   
     19. A(C   0,C   1,N   2)          122.3822         0.443338   
     20. A(C   1,N   2,H   9)          119.6381         0.356671   
     21. A(C   1,N   2,C   3)          119.6512         0.427937   
     22. A(C   3,N   2,H   9)          120.6894         0.360258   
     23. A(N   2,C   3,O   6)          121.9079         0.431966   
     24. A(N   2,C   3,N   4)          121.4201         0.432757   
     25. A(N   4,C   3,O   6)          116.6717         0.432244   
     26. A(C   3,N   4,C   5)          121.9703         0.427155   
     27. A(C   5,N   4,H  11)          118.4031         0.356153   
     28. A(C   3,N   4,H  11)          119.6266         0.360799   
     29. A(C   0,C   5,N   4)          116.2906         0.400089   
     30. A(N   4,C   5,O   7)          123.0328         0.464935   
     31. A(C   0,C   5,O   7)          120.6765         0.440860   
     32. A(C   3,O   6,H  12)          111.1376         0.369413   
     33. D(H   8,C   1,C   0,C   5)    179.8662         0.039747   
     34. D(H   8,C   1,C   0,H  10)     -0.0372         0.039747   
     35. D(N   2,C   1,C   0,H  10)    179.9480         0.039747   
     36. D(N   2,C   1,C   0,C   5)     -0.1486         0.039747   
     37. D(H   9,N   2,C   1,C   0)    178.6397         0.029027   
     38. D(C   3,N   2,C   1,C   0)      0.3061         0.029027   
     39. D(C   3,N   2,C   1,H   8)   -179.7078         0.029027   
     40. D(H   9,N   2,C   1,H   8)     -1.3742         0.029027   
     41. D(O   6,C   3,N   2,H   9)      1.6276         0.032949   
     42. D(O   6,C   3,N   2,C   1)    179.9433         0.032949   
     43. D(N   4,C   3,N   2,H   9)   -178.5657         0.032949   
     44. D(N   4,C   3,N   2,C   1)     -0.2500         0.032949   
     45. D(H  11,N   4,C   3,N   2)   -179.9157         0.033205   
     46. D(C   5,N   4,C   3,O   6)    179.8559         0.033205   
     47. D(C   5,N   4,C   3,N   2)      0.0396         0.033205   
     48. D(H  11,N   4,C   3,O   6)     -0.0993         0.033205   
     49. D(O   7,C   5,N   4,H  11)      0.0209         0.028183   
     50. D(C   0,C   5,N   4,H  11)   -179.9317         0.028183   
     51. D(C   0,C   5,N   4,C   3)      0.1126         0.028183   
     52. D(O   7,C   5,C   0,H  10)     -0.1028         0.012409   
     53. D(O   7,C   5,C   0,C   1)    179.9876         0.012409   
     54. D(O   7,C   5,N   4,C   3)   -179.9348         0.028183   
     55. D(N   4,C   5,C   0,H  10)    179.8510         0.012409   
     56. D(N   4,C   5,C   0,C   1)     -0.0586         0.012409   
     57. D(H  12,O   6,C   3,N   4)   -178.6145         0.029424   
     58. D(H  12,O   6,C   3,N   2)      1.2009         0.029424   
    -----------------------------------------------------------------

Number of atoms                         .... 13
Number of degrees of freedom            .... 58

         *************************************************************
         *                GEOMETRY OPTIMIZATION CYCLE   1            *
         *************************************************************
---------------------------------
CARTESIAN COORDINATES (ANGSTROEM)
---------------------------------
  C      1.399430    0.516640   -0.058430
  C      1.161310   -0.784570    0.164220
  N     -0.103000   -1.276200    0.362470
  C     -1.162930   -0.432800    0.329770
  N     -1.003040    0.893530    0.109560
  C      0.236000    1.453650   -0.092500
  O     -2.433310   -0.869960    0.518810
  O      0.403420    2.652190   -0.292440
  H      1.957810   -1.520430    0.199880
  H     -0.236820   -2.267020    0.506210
  H      2.383470    0.932960   -0.217070
  H     -1.811050    1.497050    0.092050
  H     -2.452850   -1.822870    0.690100

----------------------------
CARTESIAN COORDINATES (A.U.)
----------------------------
  NO LB      ZA    FRAG     MASS         X           Y           Z
   0 C     6.0000    0    12.011    2.644539    0.976308   -0.110417
   1 C     6.0000    0    12.011    2.194558   -1.482622    0.310331
   2 N     7.0000    0    14.007   -0.194642   -2.411668    0.684969
   3 C     6.0000    0    12.011   -2.197619   -0.817873    0.623175
   4 N     7.0000    0    14.007   -1.895471    1.688527    0.207038
   5 C     6.0000    0    12.011    0.445975    2.747000   -0.174800
   6 O     8.0000    0    15.999   -4.598289   -1.643986    0.980409
   7 O     8.0000    0    15.999    0.762353    5.011913   -0.552632
   8 H     1.0000    0     1.008    3.699725   -2.873196    0.377718
   9 H     1.0000    0     1.008   -0.447525   -4.284047    0.956598
  10 H     1.0000    0     1.008    4.504106    1.763039   -0.410203
  11 H     1.0000    0     1.008   -3.422389    2.829015    0.173949
  12 H     1.0000    0     1.008   -4.635215   -3.444725    1.304100

--------------------------------
INTERNAL COORDINATES (ANGSTROEM)
--------------------------------
 C      0   0   0     0.000000000000     0.00000000     0.00000000
 C      1   0   0     1.341425220055     0.00000000     0.00000000
 N      2   1   0     1.370942338503   122.38219185     0.00000000
 C      3   2   1     1.354933376554   119.65116795     0.30609763
 N      4   3   2     1.353960311494   121.42011442   359.75003504
 C      5   4   3     1.374693703921   121.97028315     0.03955506
 O      4   3   2     1.356727803061   121.90793502   179.94330834
 O      6   5   4     1.226582076993   123.03280960   180.06515272
 H      2   1   3     1.084976416887   122.21067896   180.01479813
 H      3   2   1     1.010095664974   119.63812308   178.63966434
 H      1   2   3     1.080196145892   124.05194294   179.94801311
 H      5   4   3     1.008673956539   119.62659937   180.08434517
 H      7   4   3     0.968379855119   111.13759528     1.20090425

---------------------------
INTERNAL COORDINATES (A.U.)
---------------------------
 C      0   0   0     0.000000000000     0.00000000     0.00000000
 C      1   0   0     2.534926295039     0.00000000     0.00000000
 N      2   1   0     2.590705565168   122.38219185     0.00000000
 C      3   2   1     2.560453011396   119.65116795     0.30609763
 N      4   3   2     2.558614184922   121.42011442   359.75003504
 C      5   4   3     2.597794618436   121.97028315     0.03955506
 O      4   3   2     2.563843986063   121.90793502   179.94330834
 O      6   5   4     2.317904206293   123.03280960   180.06515272
 H      2   1   3     2.050308289679   122.21067896   180.01479813
 H      3   2   1     1.908804175863   119.63812308   178.63966434
 H      1   2   3     2.041274886653   124.05194294   179.94801311
 H      5   4   3     1.906117536277   119.62659937   180.08434517
 H      7   4   3     1.829972719781   111.13759528     1.20090425

---------------------
BASIS SET INFORMATION
---------------------
There are 4 groups of distinct atoms

 Group   1 Type C   : 7s4p1d contracted to 3s2p1d pattern {511/31/1}
 Group   2 Type N   : 7s4p1d contracted to 3s2p1d pattern {511/31/1}
 Group   3 Type O   : 7s4p1d contracted to 3s2p1d pattern {511/31/1}
 Group   4 Type H   : 4s1p contracted to 2s1p pattern {31/1}

Atom   0C    basis set group =>   1
Atom   1C    basis set group =>   1
Atom   2N    basis set group =>   2
Atom   3C    basis set group =>   1
Atom   4N    basis set group =>   2
Atom   5C    basis set group =>   1
Atom   6O    basis set group =>   3
Atom   7O    basis set group =>   3
Atom   8H    basis set group =>   4
Atom   9H    basis set group =>   4
Atom  10H    basis set group =>   4
Atom  11H    basis set group =>   4
Atom  12H    basis set group =>   4


           ************************************************************
           *        Program running with 16 parallel MPI-processes    *
           *              working on a common directory               *
           ************************************************************
------------------------------------------------------------------------------
                           ORCA GTO INTEGRAL CALCULATION
------------------------------------------------------------------------------

                         BASIS SET STATISTICS AND STARTUP INFO

 # of primitive gaussian shells          ...  121
 # of primitive gaussian functions       ...  227
 # of contracted shells                  ...   63
 # of contracted basis functions         ...  137
 Highest angular momentum                ...    2
 Maximum contraction depth               ...    5
 Integral package used                   ... LIBINT
 Integral threshhold            Thresh   ...  2.500e-11
 Primitive cut-off              TCut     ...  2.500e-12


------------------------------ INTEGRAL EVALUATION ----------------------------


 * One electron integrals 
 Pre-screening matrix                    ... done
 Shell pair data                         ... done (   0.001 sec)



           ************************************************************
           *        Program running with 16 parallel MPI-processes    *
           *              working on a common directory               *
           ************************************************************
-------------------------------------------------------------------------------
                                 ORCA SCF
-------------------------------------------------------------------------------

------------
SCF SETTINGS
------------
Hamiltonian:
 Density Functional     Method          .... DFT(GTOs)
 Exchange Functional    Exchange        .... B88
   X-Alpha parameter    XAlpha          ....  0.666667
   Becke's b parameter  XBeta           ....  0.004200
 Correlation Functional Correlation     .... LYP
 LDA part of GGA corr.  LDAOpt          .... VWN-5
 Gradients option       PostSCFGGA      .... off
 Hybrid DFT is turned on
   Fraction HF Exchange ScalHFX         ....  0.200000
   Scaling of DF-GGA-X  ScalDFX         ....  0.720000
   Scaling of DF-GGA-C  ScalDFC         ....  0.810000
   Scaling of DF-LDA-C  ScalLDAC        ....  1.000000
   Perturbative correction              ....  0.000000
   Density functional embedding theory  .... OFF
   NL short-range parameter             ....  4.800000


General Settings:
 Integral files         IntName         .... Uracil_1
 Hartree-Fock type      HFTyp           .... RHF
 Total Charge           Charge          ....    1
 Multiplicity           Mult            ....    1
 Number of Electrons    NEL             ....   58
 Basis Dimension        Dim             ....  137
 Nuclear Repulsion      ENuc            ....    367.0918937196 Eh

Convergence Acceleration:
 DIIS                   CNVDIIS         .... on
   Start iteration      DIISMaxIt       ....    12
   Startup error        DIISStart       ....  0.200000
   # of expansion vecs  DIISMaxEq       ....     5
   Bias factor          DIISBfac        ....   1.050
   Max. coefficient     DIISMaxC        ....  10.000
 Newton-Raphson         CNVNR           .... off
 SOSCF                  CNVSOSCF        .... on
   Start iteration      SOSCFMaxIt      ....   150
   Startup grad/error   SOSCFStart      ....  0.003300
 Level Shifting         CNVShift        .... on
   Level shift para.    LevelShift      ....    0.2500
   Turn off err/grad.   ShiftErr        ....    0.0010
 Zerner damping         CNVZerner       .... off
 Static damping         CNVDamp         .... on
   Fraction old density DampFac         ....    0.7000
   Max. Damping (<1)    DampMax         ....    0.9800
   Min. Damping (>=0)   DampMin         ....    0.0000
   Turn off err/grad.   DampErr         ....    0.1000
 Fernandez-Rico         CNVRico         .... off

SCF Procedure:
 Maximum # iterations   MaxIter         ....   125
 SCF integral mode      SCFMode         .... Direct
   Integral package                     .... LIBINT
 Reset frequency        DirectResetFreq ....    20
 Integral Threshold     Thresh          ....  2.500e-11 Eh
 Primitive CutOff       TCut            ....  2.500e-12 Eh

Convergence Tolerance:
 Convergence Check Mode ConvCheckMode   .... Total+1el-Energy
 Convergence forced     ConvForced      .... 0
 Energy Change          TolE            ....  1.000e-08 Eh
 1-El. energy change                    ....  1.000e-05 Eh
 Orbital Gradient       TolG            ....  1.000e-05
 Orbital Rotation angle TolX            ....  1.000e-05
 DIIS Error             TolErr          ....  5.000e-07


Diagonalization of the overlap matrix:
Smallest eigenvalue                        ... 1.316e-03
Time for diagonalization                   ...    0.004 sec
Threshold for overlap eigenvalues          ... 1.000e-08
Number of eigenvalues below threshold      ... 0
Time for construction of square roots      ...    0.002 sec
Total time needed                          ...    0.006 sec

-------------------
DFT GRID GENERATION
-------------------

General Integration Accuracy     IntAcc      ...  4.340
Radial Grid Type                 RadialGrid  ... Gauss-Chebyshev
Angular Grid (max. acc.)         AngularGrid ... Lebedev-110
Angular grid pruning method      GridPruning ... 3 (G Style)
Weight generation scheme         WeightScheme... Becke
Basis function cutoff            BFCut       ...    1.0000e-11
Integration weight cutoff        WCut        ...    1.0000e-14
Grids for H and He will be reduced by one unit

# of grid points (after initial pruning)     ...  17430 (   0.0 sec)
# of grid points (after weights+screening)   ...  16387 (   0.0 sec)
nearest neighbour list constructed           ...    0.0 sec
Grid point re-assignment to atoms done       ...    0.0 sec
Grid point division into batches done        ...    0.0 sec
Reduced shell lists constructed in    0.0 sec

Total number of grid points                  ...    16387
Total number of batches                      ...      264
Average number of points per batch           ...       62
Average number of grid points per atom       ...     1261
Average number of shells per batch           ...    49.89 (79.19%)
Average number of basis functions per batch  ...   111.67 (81.51%)
Average number of large shells per batch     ...    42.11 (84.41%)
Average number of large basis fcns per batch ...    91.00 (81.49%)
Maximum spatial batch extension              ...   5.47,  5.70, 34.55 au
Average spatial batch extension              ...   0.14,  0.14,  0.31 au

Time for grid setup =    0.054 sec

------------------------------
INITIAL GUESS: MODEL POTENTIAL
------------------------------
Loading Hartree-Fock densities                     ... done
Calculating cut-offs                               ... done
Setting up the integral package                    ... done
Initializing the effective Hamiltonian             ... done
Starting the Coulomb interaction                   ... done (   0.0 sec)
Reading the grid                                   ... done
Mapping shells                                     ... done
Starting the XC term evaluation                    ... done (   0.0 sec)
  promolecular density results
     # of electrons  =     58.996013374
     EX              =    -51.661646439
     EC              =     -2.058085914
     EX+EC           =    -53.719732353
Transforming the Hamiltonian                       ... done (   0.0 sec)
Diagonalizing the Hamiltonian                      ... done (   0.0 sec)
Back transforming the eigenvectors                 ... done (   0.0 sec)
Now organizing SCF variables                       ... done
                      ------------------
                      INITIAL GUESS DONE (   0.2 sec)
                      ------------------

--------------------
CPCM SOLVATION MODEL
--------------------
CPCM parameters:
  Epsilon                                         ...      80.4000
  Refrac                                          ...       1.3300
  Rsolv                                           ...       1.3000
  Surface type                                    ...    GEPOL SES
  Epsilon function type                           ...         CPCM
Radii:
 Radius for C  used is    3.7795 Bohr (=   2.0000 Ang.)
 Radius for N  used is    3.4582 Bohr (=   1.8300 Ang.)
 Radius for O  used is    3.2503 Bohr (=   1.7200 Ang.)
 Radius for H  used is    2.4566 Bohr (=   1.3000 Ang.)
Calculating surface                               ...        done! (  0.0s)
GEPOL surface points                              ...          431
GEPOL Volume                                      ...     820.6627
GEPOL Surface-area                                ...     487.0896
Calculating surface distance matrix               ...        done! (  0.0s)
Performing Cholesky decomposition & store         ...        done! (  0.0s)
Overall time for CPCM initialization              ...                 0.0s
--------------
SCF ITERATIONS
--------------
ITER       Energy         Delta-E        Max-DP      RMS-DP      [F,P]     Damp
               ***  Starting incremental Fock matrix formation  ***
  0   -414.5098834981   0.000000000000 0.10654989  0.00342060  0.2808341 0.7000
  1   -414.6217307607  -0.111847262617 0.06578447  0.00210382  0.1072677 0.7000
                               ***Turning on DIIS***
  2   -414.6588031819  -0.037072421241 0.07640623  0.00273251  0.0321012 0.0000
  3   -414.7238737272  -0.065070545306 0.05352250  0.00148202  0.0583546 0.0000
  4   -414.7364983617  -0.012624634502 0.01105000  0.00038066  0.0127589 0.0000
  5   -414.7374657630  -0.000967401264 0.00396472  0.00013527  0.0041531 0.0000
                      *** Initiating the SOSCF procedure ***
                           *** Shutting down DIIS ***
                      *** Re-Reading the Fockian *** 
                      *** Removing any level shift *** 
ITER      Energy       Delta-E        Grad      Rot      Max-DP    RMS-DP
  6   -414.73752191  -0.0000561481  0.000434  0.000434  0.001371  0.000041
               *** Restarting incremental Fock matrix formation ***
  7   -414.73753036  -0.0000084451  0.000230  0.001103  0.000801  0.000029
  8   -414.73753120  -0.0000008427  0.000148  0.000269  0.000520  0.000012
  9   -414.73753187  -0.0000006729  0.000047  0.000106  0.000158  0.000006
 10   -414.73753192  -0.0000000475  0.000026  0.000037  0.000078  0.000002
 11   -414.73753194  -0.0000000248  0.000015  0.000028  0.000037  0.000001
 12   -414.73753195  -0.0000000026  0.000010  0.000020  0.000025  0.000001
 13   -414.73753195  -0.0000000018  0.000004  0.000008  0.000014  0.000001
                  ***Gradient check signals convergence***
              ***Rediagonalizing the Fockian in SOSCF/NRSCF***

               *****************************************************
               *                     SUCCESS                       *
               *           SCF CONVERGED AFTER  14 CYCLES          *
               *****************************************************

Setting up the final grid:

General Integration Accuracy     IntAcc      ...  4.670
Radial Grid Type                 RadialGrid  ... Gauss-Chebyshev
Angular Grid (max. acc.)         AngularGrid ... Lebedev-302
Angular grid pruning method      GridPruning ... 3 (G Style)
Weight generation scheme         WeightScheme... Becke
Basis function cutoff            BFCut       ...    1.0000e-11
Integration weight cutoff        WCut        ...    1.0000e-14
Grids for H and He will be reduced by one unit

# of grid points (after initial pruning)     ...  66666 (   0.0 sec)
# of grid points (after weights+screening)   ...  61807 (   0.0 sec)
nearest neighbour list constructed           ...    0.0 sec
Grid point re-assignment to atoms done       ...    0.0 sec
Grid point division into batches done        ...    0.3 sec
Reduced shell lists constructed in    0.3 sec

Total number of grid points                  ...    61807
Total number of batches                      ...      971
Average number of points per batch           ...       63
Average number of grid points per atom       ...     4754
Average number of shells per batch           ...    49.82 (79.08%)
Average number of basis functions per batch  ...   110.76 (80.85%)
Average number of large shells per batch     ...    40.02 (80.32%)
Average number of large basis fcns per batch ...    85.89 (77.54%)
Maximum spatial batch extension              ...   4.34,  5.07, 16.72 au
Average spatial batch extension              ...   0.08,  0.08,  0.11 au

Final grid set up in    0.3 sec
Final integration                            ... done (   0.1 sec)
Change in XC energy                          ...    -0.000188880
Integrated number of electrons               ...    57.999935644
Previous integrated no of electrons          ...    57.998690178

----------------
TOTAL SCF ENERGY
----------------

Total Energy       :         -414.73772083 Eh          -11285.58713 eV

Components:
Nuclear Repulsion  :          367.09189372 Eh            9989.07826 eV
Electronic Energy  :         -781.82961455 Eh          -21274.66539 eV
One Electron Energy:        -1278.97915861 Eh          -34802.79225 eV
Two Electron Energy:          497.14954407 Eh           13528.12685 eV
CPCM Dielectric    :           -0.12783135 Eh              -3.47847 eV

Virial components:
Potential Energy   :         -825.63926621 Eh          -22466.78662 eV
Kinetic Energy     :          410.90154538 Eh           11181.19949 eV
Virial Ratio       :            2.00933600


DFT components:
N(Alpha)           :       28.999967821930 electrons
N(Beta)            :       28.999967821930 electrons
N(Total)           :       57.999935643859 electrons
E(X)               :      -41.281338402766 Eh       
E(C)               :       -2.387327205106 Eh       
E(XC)              :      -43.668665607872 Eh       
DFET-embed. en.    :        0.000000000000 Eh       
CPCM Solvation Model Properties:
Surface-charge          :           -1.01166074
Charge-correction       :            0.00164977 Eh               0.04489 eV
Free-energy (cav+disp)  :            0.00357539 Eh               0.09729 eV
Corrected G(solv)       :         -414.73249567 Eh          -11285.44495 eV

---------------
SCF CONVERGENCE
---------------

  Last Energy change         ...   -2.0481e-10  Tolerance :   1.0000e-08
  Last MAX-Density change    ...    6.8692e-06  Tolerance :   1.0000e-07
  Last RMS-Density change    ...    2.4945e-07  Tolerance :   5.0000e-09
  Last Orbital Gradient      ...    2.4944e-06  Tolerance :   1.0000e-05
  Last Orbital Rotation      ...    2.9627e-06  Tolerance :   1.0000e-05

             **** THE GBW FILE WAS UPDATED (Uracil_1.gbw) ****
             **** DENSITY FILE WAS UPDATED (Uracil_1.scfp) ****
             **** ENERGY FILE WAS UPDATED (Uracil_1.en.tmp) ****
             **** THE GBW FILE WAS UPDATED (Uracil_1.gbw) ****
             **** DENSITY FILE WAS UPDATED (Uracil_1.scfp) ****
----------------
ORBITAL ENERGIES
----------------

  NO   OCC          E(Eh)            E(eV) 
   0   2.0000     -19.242341      -523.6107 
   1   2.0000     -19.136595      -520.7332 
   2   2.0000     -14.449539      -393.1919 
   3   2.0000     -14.440710      -392.9517 
   4   2.0000     -10.419019      -283.5159 
   5   2.0000     -10.334570      -281.2179 
   6   2.0000     -10.278549      -279.6935 
   7   2.0000     -10.226115      -278.2667 
   8   2.0000      -1.143161       -31.1070 
   9   2.0000      -1.070950       -29.1420 
  10   2.0000      -1.031334       -28.0640 
  11   2.0000      -0.978786       -26.6341 
  12   2.0000      -0.820508       -22.3272 
  13   2.0000      -0.739301       -20.1174 
  14   2.0000      -0.719957       -19.5910 
  15   2.0000      -0.650127       -17.6909 
  16   2.0000      -0.610853       -16.6222 
  17   2.0000      -0.598072       -16.2744 
  18   2.0000      -0.557374       -15.1669 
  19   2.0000      -0.532331       -14.4855 
  20   2.0000      -0.490794       -13.3552 
  21   2.0000      -0.467270       -12.7151 
  22   2.0000      -0.453947       -12.3525 
  23   2.0000      -0.444604       -12.0983 
  24   2.0000      -0.431110       -11.7311 
  25   2.0000      -0.414509       -11.2794 
  26   2.0000      -0.351488        -9.5645 
  27   2.0000      -0.296047        -8.0559 
  28   2.0000      -0.285393        -7.7659 
  29   0.0000      -0.076496        -2.0816 
  30   0.0000      -0.055225        -1.5027 
  31   0.0000       0.032424         0.8823 
  32   0.0000       0.057498         1.5646 
  33   0.0000       0.080201         2.1824 
  34   0.0000       0.081394         2.2149 
  35   0.0000       0.103624         2.8198 
  36   0.0000       0.130551         3.5525 
  37   0.0000       0.147457         4.0125 
  38   0.0000       0.179437         4.8827 
  39   0.0000       0.206376         5.6158 
  40   0.0000       0.228742         6.2244 
  41   0.0000       0.254760         6.9324 
  42   0.0000       0.280455         7.6316 
  43   0.0000       0.282301         7.6818 
  44   0.0000       0.374371        10.1872 
  45   0.0000       0.379294        10.3211 
  46   0.0000       0.397228        10.8091 
  47   0.0000       0.399561        10.8726 
  48   0.0000       0.437518        11.9055 
  49   0.0000       0.457970        12.4620 
  50   0.0000       0.480457        13.0739 
  51   0.0000       0.493786        13.4366 
  52   0.0000       0.514716        14.0061 
  53   0.0000       0.516102        14.0439 
  54   0.0000       0.560564        15.2537 
  55   0.0000       0.580630        15.7997 
  56   0.0000       0.596339        16.2272 
  57   0.0000       0.622277        16.9330 
  58   0.0000       0.636608        17.3230 
  59   0.0000       0.671279        18.2664 
  60   0.0000       0.698789        19.0150 
  61   0.0000       0.709998        19.3200 
  62   0.0000       0.738879        20.1059 
  63   0.0000       0.749313        20.3898 
  64   0.0000       0.763747        20.7826 
  65   0.0000       0.770831        20.9754 
  66   0.0000       0.837977        22.8025 
  67   0.0000       0.874338        23.7920 
  68   0.0000       0.936502        25.4835 
  69   0.0000       0.948482        25.8095 
  70   0.0000       0.989330        26.9210 
  71   0.0000       1.002351        27.2754 
  72   0.0000       1.025293        27.8996 
  73   0.0000       1.050010        28.5722 
  74   0.0000       1.135172        30.8896 
  75   0.0000       1.181051        32.1380 
  76   0.0000       1.183535        32.2056 
  77   0.0000       1.189472        32.3672 
  78   0.0000       1.226191        33.3663 
  79   0.0000       1.229273        33.4502 
  80   0.0000       1.248223        33.9659 
  81   0.0000       1.261436        34.3254 
  82   0.0000       1.273887        34.6642 
  83   0.0000       1.320913        35.9439 
  84   0.0000       1.407290        38.2943 
  85   0.0000       1.429831        38.9077 
  86   0.0000       1.475501        40.1504 
  87   0.0000       1.514970        41.2244 
  88   0.0000       1.515940        41.2508 
  89   0.0000       1.641967        44.6802 
  90   0.0000       1.683951        45.8226 
  91   0.0000       1.689630        45.9772 
  92   0.0000       1.692158        46.0460 
  93   0.0000       1.730532        47.0902 
  94   0.0000       1.800021        48.9811 
  95   0.0000       1.806502        49.1574 
  96   0.0000       1.815051        49.3900 
  97   0.0000       1.835591        49.9490 
  98   0.0000       1.861906        50.6650 
  99   0.0000       1.903664        51.8013 
 100   0.0000       1.932357        52.5821 
 101   0.0000       1.950899        53.0867 
 102   0.0000       1.955503        53.2119 
 103   0.0000       2.040260        55.5183 
 104   0.0000       2.053903        55.8896 
 105   0.0000       2.117369        57.6166 
 106   0.0000       2.160294        58.7846 
 107   0.0000       2.178708        59.2857 
 108   0.0000       2.190084        59.5952 
 109   0.0000       2.209112        60.1130 
 110   0.0000       2.319859        63.1266 
 111   0.0000       2.342372        63.7392 
 112   0.0000       2.418621        65.8140 
 113   0.0000       2.427524        66.0563 
 114   0.0000       2.473869        67.3174 
 115   0.0000       2.557599        69.5958 
 116   0.0000       2.576593        70.1127 
 117   0.0000       2.635255        71.7089 
 118   0.0000       2.656176        72.2782 
 119   0.0000       2.693394        73.2910 
 120   0.0000       2.744187        74.6731 
 121   0.0000       2.760315        75.1120 
 122   0.0000       2.814836        76.5956 
 123   0.0000       2.838229        77.2321 
 124   0.0000       2.857257        77.7499 
 125   0.0000       2.940795        80.0231 
 126   0.0000       2.950934        80.2990 
 127   0.0000       3.041503        82.7635 
 128   0.0000       3.087835        84.0243 
 129   0.0000       3.126522        85.0770 
 130   0.0000       3.184015        86.6414 
 131   0.0000       3.260704        88.7283 
 132   0.0000       3.327906        90.5569 
 133   0.0000       3.499987        95.2395 
 134   0.0000       3.545439        96.4763 
 135   0.0000       3.661314        99.6294 
 136   0.0000       3.793254       103.2197 

                    ********************************
                    * MULLIKEN POPULATION ANALYSIS *
                    ********************************

-----------------------
MULLIKEN ATOMIC CHARGES
-----------------------
   0 C :   -0.069887
   1 C :    0.162638
   2 N :   -0.019078
   3 C :    0.302302
   4 N :   -0.010435
   5 C :    0.161277
   6 O :   -0.122967
   7 O :   -0.259637
   8 H :    0.087417
   9 H :    0.229223
  10 H :    0.056499
  11 H :    0.213517
  12 H :    0.269130
Sum of atomic charges:    1.0000000

--------------------------------
MULLIKEN REDUCED ORBITAL CHARGES
--------------------------------
  0 C s       :     3.241621  s :     3.241621
      pz      :     1.012667  p :     2.798753
      px      :     0.917668
      py      :     0.868417
      dz2     :     0.002925  d :     0.029514
      dxz     :     0.002136
      dyz     :     0.005252
      dx2y2   :     0.008654
      dxy     :     0.010547
  1 C s       :     3.076994  s :     3.076994
      pz      :     0.920701  p :     2.708980
      px      :     0.808861
      py      :     0.979418
      dz2     :     0.004611  d :     0.051388
      dxz     :     0.008067
      dyz     :     0.007604
      dx2y2   :     0.014643
      dxy     :     0.016464
  2 N s       :     3.319289  s :     3.319289
      pz      :     1.517258  p :     3.677801
      px      :     1.060390
      py      :     1.100153
      dz2     :     0.002214  d :     0.021988
      dxz     :     0.004535
      dyz     :     0.001744
      dx2y2   :     0.005637
      dxy     :     0.007857
  3 C s       :     2.996163  s :     2.996163
      pz      :     0.836491  p :     2.588680
      px      :     0.793565
      py      :     0.958625
      dz2     :     0.008791  d :     0.112855
      dxz     :     0.021242
      dyz     :     0.018592
      dx2y2   :     0.032594
      dxy     :     0.031637
  4 N s       :     3.329813  s :     3.329813
      pz      :     1.517134  p :     3.661378
      px      :     1.117690
      py      :     1.026554
      dz2     :     0.002282  d :     0.019244
      dxz     :     0.002039
      dyz     :     0.003285
      dx2y2   :     0.006969
      dxy     :     0.004669
  5 C s       :     3.009132  s :     3.009132
      pz      :     0.835568  p :     2.715800
      px      :     0.951125
      py      :     0.929107
      dz2     :     0.007826  d :     0.113791
      dxz     :     0.010164
      dyz     :     0.022641
      dx2y2   :     0.026685
      dxy     :     0.046475
  6 O s       :     3.685858  s :     3.685858
      pz      :     1.734304  p :     4.423559
      px      :     1.375478
      py      :     1.313777
      dz2     :     0.001974  d :     0.013550
      dxz     :     0.002933
      dyz     :     0.000416
      dx2y2   :     0.006273
      dxy     :     0.001955
  7 O s       :     3.723913  s :     3.723913
      pz      :     1.415261  p :     4.518587
      px      :     1.765908
      py      :     1.337418
      dz2     :     0.002091  d :     0.017137
      dxz     :     0.000226
      dyz     :     0.005319
      dx2y2   :     0.005710
      dxy     :     0.003790
  8 H s       :     0.889374  s :     0.889374
      pz      :     0.003798  p :     0.023209
      px      :     0.010168
      py      :     0.009243
  9 H s       :     0.726403  s :     0.726403
      pz      :     0.009319  p :     0.044374
      px      :     0.005826
      py      :     0.029228
 10 H s       :     0.919359  s :     0.919359
      pz      :     0.004726  p :     0.024141
      px      :     0.014283
      py      :     0.005133
 11 H s       :     0.742869  s :     0.742869
      pz      :     0.008283  p :     0.043614
      px      :     0.020722
      py      :     0.014610
 12 H s       :     0.662845  s :     0.662845
      pz      :     0.015671  p :     0.068025
      px      :     0.012151
      py      :     0.040203


                     *******************************
                     * LOEWDIN POPULATION ANALYSIS *
                     *******************************

----------------------
LOEWDIN ATOMIC CHARGES
----------------------
   0 C :   -0.047494
   1 C :    0.097200
   2 N :    0.118347
   3 C :    0.244333
   4 N :    0.106174
   5 C :    0.090710
   6 O :    0.026799
   7 O :   -0.226558
   8 H :    0.069561
   9 H :    0.154367
  10 H :    0.065519
  11 H :    0.145400
  12 H :    0.155642

-------------------------------
LOEWDIN REDUCED ORBITAL CHARGES
-------------------------------
  0 C s       :     2.881483  s :     2.881483
      pz      :     1.002101  p :     3.084985
      px      :     1.038296
      py      :     1.044588
      dz2     :     0.007321  d :     0.081026
      dxz     :     0.004033
      dyz     :     0.010843
      dx2y2   :     0.026097
      dxy     :     0.032734
  1 C s       :     2.847230  s :     2.847230
      pz      :     0.912840  p :     2.932001
      px      :     0.932689
      py      :     1.086472
      dz2     :     0.010202  d :     0.123569
      dxz     :     0.017174
      dyz     :     0.015708
      dx2y2   :     0.037293
      dxy     :     0.043192
  2 N s       :     3.026106  s :     3.026106
      pz      :     1.456818  p :     3.798409
      px      :     1.164382
      py      :     1.177209
      dz2     :     0.004226  d :     0.057139
      dxz     :     0.008952
      dyz     :     0.003015
      dx2y2   :     0.018542
      dxy     :     0.022404
  3 C s       :     2.808175  s :     2.808175
      pz      :     0.852932  p :     2.713273
      px      :     0.905112
      py      :     0.955229
      dz2     :     0.017077  d :     0.234219
      dxz     :     0.039349
      dyz     :     0.036036
      dx2y2   :     0.074057
      dxy     :     0.067700
  4 N s       :     3.040626  s :     3.040626
      pz      :     1.453274  p :     3.799630
      px      :     1.196779
      py      :     1.149577
      dz2     :     0.005072  d :     0.053571
      dxz     :     0.004070
      dyz     :     0.006463
      dx2y2   :     0.020983
      dxy     :     0.016983
  5 C s       :     2.833781  s :     2.833781
      pz      :     0.835933  p :     2.818082
      px      :     0.967514
      py      :     1.014635
      dz2     :     0.017106  d :     0.257427
      dxz     :     0.021352
      dyz     :     0.043375
      dx2y2   :     0.064215
      dxy     :     0.111379
  6 O s       :     3.416356  s :     3.416356
      pz      :     1.700189  p :     4.531330
      px      :     1.437525
      py      :     1.393616
      dz2     :     0.003749  d :     0.025515
      dxz     :     0.003790
      dyz     :     0.000791
      dx2y2   :     0.013307
      dxy     :     0.003878
  7 O s       :     3.551480  s :     3.551480
      pz      :     1.416726  p :     4.645739
      px      :     1.772776
      py      :     1.456237
      dz2     :     0.004079  d :     0.029339
      dxz     :     0.000320
      dyz     :     0.007096
      dx2y2   :     0.011790
      dxy     :     0.006054
  8 H s       :     0.859597  s :     0.859597
      pz      :     0.012282  p :     0.070842
      px      :     0.031314
      py      :     0.027246
  9 H s       :     0.721900  s :     0.721900
      pz      :     0.032215  p :     0.123733
      px      :     0.015351
      py      :     0.076168
 10 H s       :     0.861858  s :     0.861858
      pz      :     0.015677  p :     0.072623
      px      :     0.042147
      py      :     0.014799
 11 H s       :     0.730059  s :     0.730059
      pz      :     0.030349  p :     0.124541
      px      :     0.056281
      py      :     0.037910
 12 H s       :     0.669891  s :     0.669891
      pz      :     0.044195  p :     0.174467
      px      :     0.030956
      py      :     0.099315


                      *****************************
                      * MAYER POPULATION ANALYSIS *
                      *****************************

  NA   - Mulliken gross atomic population
  ZA   - Total nuclear charge
  QA   - Mulliken gross atomic charge
  VA   - Mayer's total valence
  BVA  - Mayer's bonded valence
  FA   - Mayer's free valence

  ATOM       NA         ZA         QA         VA         BVA        FA
  0 C      6.0699     6.0000    -0.0699     3.8432     3.8432     0.0000
  1 C      5.8374     6.0000     0.1626     3.8856     3.8856     0.0000
  2 N      7.0191     7.0000    -0.0191     3.4573     3.4573    -0.0000
  3 C      5.6977     6.0000     0.3023     4.2358     4.2358     0.0000
  4 N      7.0104     7.0000    -0.0104     3.3313     3.3313    -0.0000
  5 C      5.8387     6.0000     0.1613     4.3238     4.3238     0.0000
  6 O      8.1230     8.0000    -0.1230     2.3741     2.3741     0.0000
  7 O      8.2596     8.0000    -0.2596     2.2548     2.2548     0.0000
  8 H      0.9126     1.0000     0.0874     0.9840     0.9840    -0.0000
  9 H      0.7708     1.0000     0.2292     0.9569     0.9569     0.0000
 10 H      0.9435     1.0000     0.0565     1.0059     1.0059     0.0000
 11 H      0.7865     1.0000     0.2135     0.9852     0.9852    -0.0000
 12 H      0.7309     1.0000     0.2691     0.9605     0.9605     0.0000

  Mayer bond orders larger than 0.100000
B(  0-C ,  1-C ) :   1.6809 B(  0-C ,  5-C ) :   1.0610 B(  0-C , 10-H ) :   0.9776 
B(  1-C ,  2-N ) :   1.1286 B(  1-C ,  8-H ) :   0.9564 B(  2-N ,  3-C ) :   1.3288 
B(  2-N ,  9-H ) :   0.8811 B(  3-C ,  4-N ) :   1.3120 B(  3-C ,  6-O ) :   1.3773 
B(  4-N ,  5-C ) :   1.0626 B(  4-N , 11-H ) :   0.8706 B(  5-C ,  7-O ) :   2.0839 
B(  6-O , 12-H ) :   0.9085 

-------
TIMINGS
-------

Total SCF time: 0 days 0 hours 0 min 10 sec 

Total time                  ....      10.093 sec
Sum of individual times     ....       9.754 sec  ( 96.6%)

Fock matrix formation       ....       9.073 sec  ( 89.9%)
  XC integration            ....       0.489 sec  (  5.4% of F)
    Basis function eval.    ....       0.091 sec  ( 18.5% of XC)
    Density eval.           ....       0.059 sec  ( 12.1% of XC)
    XC-Functional eval.     ....       0.020 sec  (  4.1% of XC)
    XC-Potential eval.      ....       0.076 sec  ( 15.6% of XC)
Diagonalization             ....       0.029 sec  (  0.3%)
Density matrix formation    ....       0.011 sec  (  0.1%)
Population analysis         ....       0.004 sec  (  0.0%)
Initial guess               ....       0.158 sec  (  1.6%)
Orbital Transformation      ....       0.000 sec  (  0.0%)
Orbital Orthonormalization  ....       0.000 sec  (  0.0%)
DIIS solution               ....       0.011 sec  (  0.1%)
SOSCF solution              ....       0.069 sec  (  0.7%)
Grid generation             ....       0.399 sec  (  3.9%)

-------------------------   --------------------
FINAL SINGLE POINT ENERGY      -414.737720828509
-------------------------   --------------------



           ************************************************************
           *        Program running with 16 parallel MPI-processes    *
           *              working on a common directory               *
           ************************************************************
------------------------------------------------------------------------------
                         ORCA SCF GRADIENT CALCULATION
------------------------------------------------------------------------------

Gradient of the Kohn-Sham DFT energy:
Kohn-Sham wavefunction type      ... RKS
Hartree-Fock exchange scaling    ...    0.200
Number of operators              ...    1
Number of atoms                  ...   13
Basis set dimensions             ...  137
Integral neglect threshold       ... 2.5e-11
Integral primitive cutoff        ... 2.5e-12

Nuclear repulsion gradient       ... done
One Electron Gradient            ... done
Pre-screening matrix             ... done
Starting the two electron gradient:
Two electron gradient done
Exchange-correlation gradient    ... done

------------------
CARTESIAN GRADIENT
------------------

   1   C   :    0.034543692   -0.008848206   -0.002066326
   2   C   :   -0.021539239    0.004385063    0.001213350
   3   N   :    0.028904900   -0.032711535    0.003110459
   4   C   :    0.038786106    0.022021919   -0.007174552
   5   N   :    0.003579126    0.043032799   -0.007041923
   6   C   :   -0.060541789   -0.026256848    0.009968740
   7   O   :   -0.049981619   -0.026553610    0.008991247
   8   O   :    0.015976710    0.011185243   -0.003243764
   9   H   :   -0.001693218    0.004890330   -0.000640746
  10   H   :    0.004064098    0.008723284   -0.002423706
  11   H   :   -0.005357043   -0.001300134    0.000750207
  12   H   :    0.012085811   -0.005624417   -0.000258335
  13   H   :    0.001172465    0.007056112   -0.001184652

Difference to translation invariance:
           :   -0.0000000000    0.0000000000    0.0000000000

Norm of the cartesian gradient     ...    0.1270698965
RMS gradient                       ...    0.0203474679
MAX gradient                       ...    0.0605417887

-------
TIMINGS
-------

Total SCF gradient time            ...        1.178 sec

One electron gradient       ....       0.007 sec  (  0.6%)
Prescreening matrices       ....       0.010 sec  (  0.9%)
Two electron gradient       ....       0.633 sec  ( 53.7%)
XC gradient                 ....       0.242 sec  ( 20.5%)
CPCM gradient               ....       0.142 sec  ( 12.0%)
   A-Matrix (El+Nuc)        ....       0.008 sec  (  0.7%)
   Potential                ....       0.134 sec  ( 11.4%)
------------------------------------------------------------------------------
                         ORCA GEOMETRY RELAXATION STEP
------------------------------------------------------------------------------

Reading the OPT-File                    .... done
Getting information on internals        .... done
Copying old internal coords+grads       .... done
Making the new internal coordinates     .... (new redundants).... done
Validating the new internal coordinates .... (new redundants).... done
Calculating the B-matrix                .... done
Calculating the G,G- and P matrices     .... done
Transforming gradient to internals      .... done
Projecting the internal gradient        .... done
Number of atoms                         ....  13
Number of internal coordinates          ....  58
Current Energy                          ....  -414.737720829 Eh
Current gradient norm                   ....     0.127069896 Eh/bohr
Maximum allowed component of the step   ....  0.300
Current trust radius                    ....  0.300
Evaluating the initial hessian          ....  (Almloef) done
Projecting the Hessian                  .... done
Forming the augmented Hessian           .... done
Diagonalizing the augmented Hessian     .... done
Last element of RFO vector              ....  0.988849222
Lowest eigenvalues of augmented Hessian:
 -0.012423429  0.019313813  0.022987997  0.027295312  0.029424919
Length of the computed step             ....  0.150599469
The final length of the internal step   ....  0.150599469
Converting the step to cartesian space:
 Initial RMS(Int)=    0.0197746790
Transforming coordinates:
 Iter   0:  RMS(Cart)=    0.0249263945 RMS(Int)=    0.8250688788
 Iter   1:  RMS(Cart)=    0.0003570546 RMS(Int)=    0.0002937646
 Iter   2:  RMS(Cart)=    0.0000113248 RMS(Int)=    0.0000077341
 Iter   3:  RMS(Cart)=    0.0000004921 RMS(Int)=    0.0000003683
 Iter   4:  RMS(Cart)=    0.0000000166 RMS(Int)=    0.0000000105
done
Storing new coordinates                 .... done

                                .--------------------.
          ----------------------|Geometry convergence|-------------------------
          Item                value                   Tolerance       Converged
          ---------------------------------------------------------------------
          RMS gradient        0.0110958758            0.0001000000      NO
          MAX gradient        0.0530924065            0.0003000000      NO
          RMS step            0.0197746790            0.0020000000      NO
          MAX step            0.0823424340            0.0040000000      NO
          ........................................................
          Max(Bonds)      0.0436      Max(Angles)    2.79
          Max(Dihed)        0.52      Max(Improp)    0.00
          ---------------------------------------------------------------------

The optimization has not yet converged - more geometry cycles are needed


    ---------------------------------------------------------------------------
                         Redundant Internal Coordinates
                            (Angstroem and degrees)

        Definition                    Value    dE/dq     Step     New-Value
    ----------------------------------------------------------------------------
     1. B(C   1,C   0)                1.3414 -0.007784  0.0060    1.3474   
     2. B(N   2,C   1)                1.3709 -0.015814  0.0135    1.3845   
     3. B(C   3,N   2)                1.3549  0.027316 -0.0231    1.3318   
     4. B(N   4,C   3)                1.3540  0.020493 -0.0174    1.3366   
     5. B(C   5,N   4)                1.3747 -0.026723  0.0235    1.3982   
     6. B(C   5,C   0)                1.4942  0.018565 -0.0212    1.4731   
     7. B(O   6,C   3)                1.3567  0.053092 -0.0436    1.3132   
     8. B(O   7,C   5)                1.2266  0.013636 -0.0070    1.2196   
     9. B(H   8,C   1)                1.0850 -0.004573  0.0064    1.0914   
    10. B(H   9,N   2)                1.0101 -0.009437  0.0112    1.0213   
    11. B(H  10,C   0)                1.0802 -0.005492  0.0075    1.0877   
    12. B(H  11,N   4)                1.0087 -0.013048  0.0154    1.0241   
    13. B(H  12,O   6)                0.9684 -0.007227  0.0074    0.9758   
    14. A(C   1,C   0,H  10)          124.05  0.002655   -0.49    123.56   
    15. A(C   5,C   0,H  10)          117.66  0.000957   -0.26    117.40   
    16. A(C   1,C   0,C   5)          118.28 -0.003612    0.76    119.04   
    17. A(N   2,C   1,H   8)          115.41 -0.001190    0.08    115.48   
    18. A(C   0,C   1,H   8)          122.21 -0.006187    0.83    123.04   
    19. A(C   0,C   1,N   2)          122.38  0.007377   -0.91    121.48   
    20. A(C   1,N   2,H   9)          119.64  0.000810    0.03    119.67   
    21. A(C   1,N   2,C   3)          119.65 -0.007132    0.80    120.45   
    22. A(C   3,N   2,H   9)          120.69  0.006311   -0.82    119.87   
    23. A(N   2,C   3,O   6)          121.91 -0.005777    0.87    122.78   
    24. A(N   2,C   3,N   4)          121.42  0.003435   -0.70    120.72   
    25. A(N   4,C   3,O   6)          116.67  0.002342   -0.17    116.50   
    26. A(C   3,N   4,C   5)          121.97 -0.011689    1.49    123.46   
    27. A(C   5,N   4,H  11)          118.40  0.003159   -0.34    118.07   
    28. A(C   3,N   4,H  11)          119.63  0.008531   -1.16    118.47   
    29. A(C   0,C   5,N   4)          116.29  0.011621   -1.45    114.84   
    30. A(N   4,C   5,O   7)          123.03  0.010848   -1.35    121.69   
    31. A(C   0,C   5,O   7)          120.68 -0.022469    2.79    123.47   
    32. A(C   3,O   6,H  12)          111.14 -0.001787    0.27    111.41   
    33. D(H   8,C   1,C   0,C   5)    179.87 -0.000090    0.10    179.97   
    34. D(H   8,C   1,C   0,H  10)     -0.04 -0.000052    0.05      0.01   
    35. D(N   2,C   1,C   0,H  10)    179.95 -0.000038    0.02    179.96   
    36. D(N   2,C   1,C   0,C   5)     -0.15 -0.000076    0.07     -0.08   
    37. D(H   9,N   2,C   1,C   0)    178.64 -0.000293    0.43    179.07   
    38. D(C   3,N   2,C   1,C   0)      0.31  0.000034   -0.06      0.25   
    39. D(C   3,N   2,C   1,H   8)   -179.71  0.000045   -0.08   -179.79   
    40. D(H   9,N   2,C   1,H   8)     -1.37 -0.000281    0.40     -0.97   
    41. D(O   6,C   3,N   2,H   9)      1.63  0.000399   -0.48      1.15   
    42. D(O   6,C   3,N   2,C   1)    179.94 -0.000028    0.03    179.97   
    43. D(N   4,C   3,N   2,H   9)   -178.57  0.000441   -0.52   -179.09   
    44. D(N   4,C   3,N   2,C   1)     -0.25  0.000015   -0.02     -0.27   
    45. D(H  11,N   4,C   3,N   2)   -179.92 -0.000073    0.10   -179.81   
    46. D(C   5,N   4,C   3,O   6)    179.86 -0.000014    0.03    179.89   
    47. D(C   5,N   4,C   3,N   2)      0.04 -0.000039    0.07      0.11   
    48. D(H  11,N   4,C   3,O   6)     -0.10 -0.000048    0.06     -0.04   
    49. D(O   7,C   5,N   4,H  11)      0.02 -0.000039    0.06      0.08   
    50. D(C   0,C   5,N   4,H  11)   -179.93  0.000065   -0.09   -180.02   
    51. D(C   0,C   5,N   4,C   3)      0.11  0.000029   -0.05      0.06   
    52. D(O   7,C   5,C   0,H  10)     -0.10  0.000038   -0.10     -0.21   
    53. D(O   7,C   5,C   0,C   1)    179.99  0.000072   -0.16    179.83   
    54. D(O   7,C   5,N   4,C   3)   -179.93 -0.000075    0.10   -179.84   
    55. D(N   4,C   5,C   0,H  10)    179.85 -0.000046    0.04    179.89   
    56. D(N   4,C   5,C   0,C   1)     -0.06 -0.000013   -0.01     -0.07   
    57. D(H  12,O   6,C   3,N   4)   -178.61  0.000140   -0.20   -178.81   
    58. D(H  12,O   6,C   3,N   2)      1.20  0.000183   -0.24      0.96   
    ----------------------------------------------------------------------------

         *************************************************************
         *                GEOMETRY OPTIMIZATION CYCLE   2            *
         *************************************************************
---------------------------------
CARTESIAN COORDINATES (ANGSTROEM)
---------------------------------
  C      1.395918    0.523645   -0.060588
  C      1.162561   -0.784446    0.163248
  N     -0.120060   -1.266408    0.361548
  C     -1.163938   -0.439974    0.330331
  N     -0.993146    0.867666    0.112835
  C      0.257227    1.457547   -0.095796
  O     -2.399039   -0.847378    0.511773
  O      0.375976    2.655921   -0.288683
  H      1.956417   -1.532334    0.202223
  H     -0.266609   -2.265470    0.514814
  H      2.388697    0.938574   -0.219907
  H     -1.819598    1.472302    0.098757
  H     -2.435967   -1.807474    0.682075

----------------------------
CARTESIAN COORDINATES (A.U.)
----------------------------
  NO LB      ZA    FRAG     MASS         X           Y           Z
   0 C     6.0000    0    12.011    2.637902    0.989546   -0.114494
   1 C     6.0000    0    12.011    2.196922   -1.482389    0.308493
   2 N     7.0000    0    14.007   -0.226881   -2.393165    0.683227
   3 C     6.0000    0    12.011   -2.199524   -0.831431    0.624236
   4 N     7.0000    0    14.007   -1.876773    1.639652    0.213227
   5 C     6.0000    0    12.011    0.486088    2.754364   -0.181028
   6 O     8.0000    0    15.999   -4.533526   -1.601312    0.967111
   7 O     8.0000    0    15.999    0.710492    5.018963   -0.545531
   8 H     1.0000    0     1.008    3.697092   -2.895691    0.382145
   9 H     1.0000    0     1.008   -0.503818   -4.281119    0.972857
  10 H     1.0000    0     1.008    4.513983    1.773648   -0.415564
  11 H     1.0000    0     1.008   -3.438541    2.782248    0.186623
  12 H     1.0000    0     1.008   -4.603310   -3.415631    1.288935

--------------------------------
INTERNAL COORDINATES (ANGSTROEM)
--------------------------------
 C      0   0   0     0.000000000000     0.00000000     0.00000000
 C      1   0   0     1.347464484904     0.00000000     0.00000000
 N      2   1   0     1.384459859372   121.47905844     0.00000000
 C      3   2   1     1.331783636136   120.44951741     0.25107431
 N      4   3   2     1.336562223967   120.71534247   359.73369952
 C      5   4   3     1.398183283487   123.45753612     0.11078294
 O      4   3   2     1.313154063798   122.78356887   179.97191314
 O      6   5   4     1.219592922476   121.68337398   180.15638236
 H      2   1   3     1.091357764401   123.03951294   180.04654288
 H      3   2   1     1.021318610503   119.66747794   179.07106165
 H      1   2   3     1.087731187491   123.55324917   179.96189794
 H      5   4   3     1.024112092382   118.47269544   180.18631828
 H      7   4   3     0.975782063610   111.40578520     0.95781277

---------------------------
INTERNAL COORDINATES (A.U.)
---------------------------
 C      0   0   0     0.000000000000     0.00000000     0.00000000
 C      1   0   0     2.546338851655     0.00000000     0.00000000
 N      2   1   0     2.616249977619   121.47905844     0.00000000
 C      3   2   1     2.516706341935   120.44951741     0.25107431
 N      4   3   2     2.525736564243   120.71534247   359.73369952
 C      5   4   3     2.642183490817   123.45753612     0.11078294
 O      4   3   2     2.481501552223   122.78356887   179.97191314
 O      6   5   4     2.304696618349   121.68337398   180.15638236
 H      2   1   3     2.062367288846   123.03951294   180.04654288
 H      3   2   1     1.930012469328   119.66747794   179.07106165
 H      1   2   3     2.055514051683   123.55324917   179.96189794
 H      5   4   3     1.935291385040   118.47269544   180.18631828
 H      7   4   3     1.843960866616   111.40578520     0.95781277



           ************************************************************
           *        Program running with 16 parallel MPI-processes    *
           *              working on a common directory               *
           ************************************************************


           ************************************************************
           *        Program running with 16 parallel MPI-processes    *
           *              working on a common directory               *
           ************************************************************

Diagonalization of the overlap matrix:
Smallest eigenvalue                        ... 1.291e-03
Time for diagonalization                   ...    0.006 sec
Threshold for overlap eigenvalues          ... 1.000e-08
Number of eigenvalues below threshold      ... 0
Time for construction of square roots      ...    0.002 sec
Total time needed                          ...    0.008 sec

-------------------
DFT GRID GENERATION
-------------------

General Integration Accuracy     IntAcc      ...  4.340
Radial Grid Type                 RadialGrid  ... Gauss-Chebyshev
Angular Grid (max. acc.)         AngularGrid ... Lebedev-110
Angular grid pruning method      GridPruning ... 3 (G Style)
Weight generation scheme         WeightScheme... Becke
Basis function cutoff            BFCut       ...    1.0000e-11
Integration weight cutoff        WCut        ...    1.0000e-14
Grids for H and He will be reduced by one unit

# of grid points (after initial pruning)     ...  17430 (   0.0 sec)
# of grid points (after weights+screening)   ...  16384 (   0.0 sec)
nearest neighbour list constructed           ...    0.0 sec
Grid point re-assignment to atoms done       ...    0.0 sec
Grid point division into batches done        ...    0.0 sec
Reduced shell lists constructed in    0.0 sec

Total number of grid points                  ...    16384
Total number of batches                      ...      261
Average number of points per batch           ...       62
Average number of grid points per atom       ...     1260
Average number of shells per batch           ...    49.83 (79.10%)
Average number of basis functions per batch  ...   111.50 (81.39%)
Average number of large shells per batch     ...    42.28 (84.84%)
Average number of large basis fcns per batch ...    91.83 (82.36%)
Maximum spatial batch extension              ...   4.53,  5.70, 30.49 au
Average spatial batch extension              ...   0.14,  0.14,  0.31 au

Time for grid setup =    0.054 sec


--------------------
CPCM SOLVATION MODEL
--------------------
CPCM parameters:
  Epsilon                                         ...      80.4000
  Refrac                                          ...       1.3300
  Rsolv                                           ...       1.3000
  Surface type                                    ...    GEPOL SES
  Epsilon function type                           ...         CPCM
Radii:
 Radius for C  used is    3.7795 Bohr (=   2.0000 Ang.)
 Radius for N  used is    3.4582 Bohr (=   1.8300 Ang.)
 Radius for O  used is    3.2503 Bohr (=   1.7200 Ang.)
 Radius for H  used is    2.4566 Bohr (=   1.3000 Ang.)
Calculating surface                               ...        done! (  0.0s)
GEPOL surface points                              ...          443
GEPOL Volume                                      ...     818.7103
GEPOL Surface-area                                ...     485.3939
Calculating surface distance matrix               ...        done! (  0.0s)
Performing Cholesky decomposition & store         ...        done! (  0.0s)
Overall time for CPCM initialization              ...                 0.1s
--------------
SCF ITERATIONS
--------------
ITER       Energy         Delta-E        Max-DP      RMS-DP      [F,P]     Damp
               ***  Starting incremental Fock matrix formation  ***
  0   -414.7422350516   0.000000000000 0.00546972  0.00023837  0.0156100 0.7000
                      *** Initiating the SOSCF procedure ***
                      *** Re-Reading the Fockian *** 
                      *** Removing any level shift *** 
ITER      Energy       Delta-E        Grad      Rot      Max-DP    RMS-DP
  1   -414.74307108  -0.0008360332  0.001332  0.001332  0.016492  0.000655
               *** Restarting incremental Fock matrix formation ***
  2   -414.74497338  -0.0019022918  0.001899  0.006275  0.011941  0.000273
  3   -414.74489684   0.0000765325  0.002509  0.003602  0.005454  0.000157
  4   -414.74509299  -0.0001961484  0.000524  0.001560  0.002717  0.000074
  5   -414.74508290   0.0000100949  0.000804  0.001052  0.001803  0.000048
  6   -414.74509942  -0.0000165223  0.000063  0.000135  0.000268  0.000010
  7   -414.74509933   0.0000000935  0.000082  0.000092  0.000144  0.000005
  8   -414.74509955  -0.0000002276  0.000011  0.000028  0.000059  0.000002
  9   -414.74509955   0.0000000024  0.000014  0.000012  0.000031  0.000001
                  ***Gradient check signals convergence***
              ***Rediagonalizing the Fockian in SOSCF/NRSCF***

               *****************************************************
               *                     SUCCESS                       *
               *           SCF CONVERGED AFTER  10 CYCLES          *
               *****************************************************

Setting up the final grid:

General Integration Accuracy     IntAcc      ...  4.670
Radial Grid Type                 RadialGrid  ... Gauss-Chebyshev
Angular Grid (max. acc.)         AngularGrid ... Lebedev-302
Angular grid pruning method      GridPruning ... 3 (G Style)
Weight generation scheme         WeightScheme... Becke
Basis function cutoff            BFCut       ...    1.0000e-11
Integration weight cutoff        WCut        ...    1.0000e-14
Grids for H and He will be reduced by one unit

# of grid points (after initial pruning)     ...  66666 (   0.0 sec)
# of grid points (after weights+screening)   ...  61780 (   0.0 sec)
nearest neighbour list constructed           ...    0.0 sec
Grid point re-assignment to atoms done       ...    0.0 sec
Grid point division into batches done        ...    0.3 sec
Reduced shell lists constructed in    0.3 sec

Total number of grid points                  ...    61780
Total number of batches                      ...      972
Average number of points per batch           ...       63
Average number of grid points per atom       ...     4752
Average number of shells per batch           ...    49.85 (79.13%)
Average number of basis functions per batch  ...   110.92 (80.96%)
Average number of large shells per batch     ...    40.05 (80.33%)
Average number of large basis fcns per batch ...    86.15 (77.66%)
Maximum spatial batch extension              ...   4.40,  5.06, 16.55 au
Average spatial batch extension              ...   0.08,  0.08,  0.11 au

Final grid set up in    0.5 sec
Final integration                            ... done (   0.2 sec)
Change in XC energy                          ...    -0.000236477
Integrated number of electrons               ...    57.999927875
Previous integrated no of electrons          ...    57.998605122
Total Energy       :         -414.74533604 Eh          -11285.79435 eV
  Last Energy change         ...   -7.6614e-09  Tolerance :   1.0000e-08
  Last MAX-Density change    ...    1.0004e-05  Tolerance :   1.0000e-07
             **** THE GBW FILE WAS UPDATED (Uracil_1.gbw) ****
             **** DENSITY FILE WAS UPDATED (Uracil_1.scfp) ****
             **** ENERGY FILE WAS UPDATED (Uracil_1.en.tmp) ****
             **** THE GBW FILE WAS UPDATED (Uracil_1.gbw) ****
             **** DENSITY FILE WAS UPDATED (Uracil_1.scfp) ****
Total SCF time: 0 days 0 hours 0 min 7 sec 

-------------------------   --------------------
FINAL SINGLE POINT ENERGY      -414.745336036083
-------------------------   --------------------



           ************************************************************
           *        Program running with 16 parallel MPI-processes    *
           *              working on a common directory               *
           ************************************************************
------------------------------------------------------------------------------
                         ORCA SCF GRADIENT CALCULATION
------------------------------------------------------------------------------

Gradient of the Kohn-Sham DFT energy:
Kohn-Sham wavefunction type      ... RKS
Hartree-Fock exchange scaling    ...    0.200
Number of operators              ...    1
Number of atoms                  ...   13
Basis set dimensions             ...  137
Integral neglect threshold       ... 2.5e-11
Integral primitive cutoff        ... 2.5e-12

Nuclear repulsion gradient       ... done
One Electron Gradient            ... done
Pre-screening matrix             ... done
Starting the two electron gradient:
Two electron gradient done
Exchange-correlation gradient    ... done

------------------
CARTESIAN GRADIENT
------------------

   1   C   :    0.017099072   -0.002654354   -0.001257552
   2   C   :   -0.011496209    0.003507526    0.000390861
   3   N   :    0.001395843   -0.005478037    0.001510404
   4   C   :    0.022174136    0.004726263   -0.003305303
   5   N   :    0.004213036    0.008780001   -0.001637435
   6   C   :   -0.029766825   -0.015208397    0.005060780
   7   O   :   -0.016170514   -0.002223570    0.001809940
   8   O   :    0.008883650    0.005400994   -0.001561774
   9   H   :    0.001621307    0.001086013   -0.000364831
  10   H   :    0.000082781   -0.000823163   -0.000254751
  11   H   :   -0.001179421    0.001392451   -0.000068248
  12   H   :   -0.000507142    0.001269917   -0.000098745
  13   H   :    0.003650287    0.000224356   -0.000223345

Difference to translation invariance:
           :    0.0000000000   -0.0000000000   -0.0000000000

Norm of the cartesian gradient     ...    0.0514671882
RMS gradient                       ...    0.0082413458
MAX gradient                       ...    0.0297668252

-------
TIMINGS
-------

Total SCF gradient time            ...        1.172 sec

One electron gradient       ....       0.007 sec  (  0.6%)
Prescreening matrices       ....       0.010 sec  (  0.9%)
Two electron gradient       ....       0.613 sec  ( 52.3%)
XC gradient                 ....       0.246 sec  ( 21.0%)
CPCM gradient               ....       0.145 sec  ( 12.4%)
   A-Matrix (El+Nuc)        ....       0.007 sec  (  0.6%)
   Potential                ....       0.138 sec  ( 11.7%)
------------------------------------------------------------------------------
                         ORCA GEOMETRY RELAXATION STEP
------------------------------------------------------------------------------

Reading the OPT-File                    .... done
Getting information on internals        .... done
Copying old internal coords+grads       .... done
Making the new internal coordinates     .... (new redundants).... done
Validating the new internal coordinates .... (new redundants).... done
Calculating the B-matrix                .... done
Calculating the G,G- and P matrices     .... done
Transforming gradient to internals      .... done
Projecting the internal gradient        .... done
Number of atoms                         ....  13
Number of internal coordinates          ....  58
Current Energy                          ....  -414.745336036 Eh
Current gradient norm                   ....     0.051467188 Eh/bohr
Maximum allowed component of the step   ....  0.300
Current trust radius                    ....  0.300
Updating the Hessian (BFGS)             .... done
Forming the augmented Hessian           .... done
Diagonalizing the augmented Hessian     .... done
Last element of RFO vector              ....  0.994908568
Lowest eigenvalues of augmented Hessian:
 -0.002941109  0.019315966  0.022987939  0.027295505  0.029422004
Length of the computed step             ....  0.101297396
The final length of the internal step   ....  0.101297396
Converting the step to cartesian space:
 Initial RMS(Int)=    0.0133009997
Transforming coordinates:
 Iter   0:  RMS(Cart)=    0.0148266232 RMS(Int)=    1.6495071065
 Iter   1:  RMS(Cart)=    0.0002818703 RMS(Int)=    1.1667551080
 Iter   2:  RMS(Cart)=    0.0000075054 RMS(Int)=    0.0000046077
 Iter   3:  RMS(Cart)=    0.0000002786 RMS(Int)=    0.0000002294
 Iter   4:  RMS(Cart)=    0.0000000082 RMS(Int)=    0.0000000048
done
Storing new coordinates                 .... done

                                .--------------------.
          ----------------------|Geometry convergence|-------------------------
          Item                value                   Tolerance       Converged
          ---------------------------------------------------------------------
          Energy change      -0.0076152076            0.0000050000      NO
          RMS gradient        0.0039292760            0.0001000000      NO
          MAX gradient        0.0127253661            0.0003000000      NO
          RMS step            0.0133009997            0.0020000000      NO
          MAX step            0.0448242136            0.0040000000      NO
          ........................................................
          Max(Bonds)      0.0194      Max(Angles)    2.57
          Max(Dihed)        0.50      Max(Improp)    0.00
          ---------------------------------------------------------------------

The optimization has not yet converged - more geometry cycles are needed


    ---------------------------------------------------------------------------
                         Redundant Internal Coordinates
                            (Angstroem and degrees)

        Definition                    Value    dE/dq     Step     New-Value
    ----------------------------------------------------------------------------
     1. B(C   1,C   0)                1.3475 -0.002316  0.0029    1.3504   
     2. B(N   2,C   1)                1.3845 -0.003846  0.0060    1.3905   
     3. B(C   3,N   2)                1.3318  0.000689 -0.0033    1.3284   
     4. B(N   4,C   3)                1.3366  0.001345 -0.0034    1.3332   
     5. B(C   5,N   4)                1.3982 -0.012725  0.0186    1.4168   
     6. B(C   5,C   0)                1.4731  0.006913 -0.0139    1.4592   
     7. B(O   6,C   3)                1.3132  0.012619 -0.0194    1.2938   
     8. B(O   7,C   5)                1.2196  0.006418 -0.0055    1.2141   
     9. B(H   8,C   1)                1.0914  0.000424 -0.0002    1.0911   
    10. B(H   9,N   2)                1.0213  0.000756 -0.0002    1.0211   
    11. B(H  10,C   0)                1.0877 -0.000535  0.0018    1.0895   
    12. B(H  11,N   4)                1.0241  0.001159 -0.0005    1.0236   
    13. B(H  12,O   6)                0.9758 -0.000407  0.0013    0.9771   
    14. A(C   1,C   0,H  10)          123.55  0.004110   -0.91    122.64   
    15. A(C   5,C   0,H  10)          117.40  0.000546   -0.11    117.29   
    16. A(C   1,C   0,C   5)          119.05 -0.004656    1.02    120.07   
    17. A(N   2,C   1,H   8)          115.48  0.000668   -0.16    115.32   
    18. A(C   0,C   1,H   8)          123.04 -0.003310    0.80    123.84   
    19. A(C   0,C   1,N   2)          121.48  0.002642   -0.64    120.84   
    20. A(C   1,N   2,H   9)          119.67  0.001677   -0.29    119.38   
    21. A(C   1,N   2,C   3)          120.45 -0.003778    0.76    121.21   
    22. A(C   3,N   2,H   9)          119.87  0.002097   -0.46    119.41   
    23. A(N   2,C   3,O   6)          122.78 -0.003648    0.79    123.57   
    24. A(N   2,C   3,N   4)          120.72  0.005689   -1.17    119.54   
[...]
     13       0.076257  -0.007333  -0.016360  -0.000806  -0.195526   0.056448
     14       0.006896  -0.047960   0.029320  -0.007401   0.026314  -0.002681
     15      -0.005063   0.022523   0.020004   0.001125  -0.029780   0.098764
     16       0.197793   0.035890   0.028011   0.000883   0.033974  -0.011161
     17      -0.027560   0.236752  -0.006475   0.004891  -0.002145  -0.007791
     18      -0.221466   0.000764   0.134281   0.000941   0.053553  -0.045069
     19      -0.038554   0.000243   0.062721   0.000270   0.021726  -0.001450
     20       0.027557   0.000908  -0.023000  -0.001162  -0.008589   0.004596
     21      -0.018690  -0.006119   0.008675  -0.000102   0.020819  -0.021975
     22       0.251619  -0.010701   0.001333  -0.000168   0.056658  -0.033597
     23      -0.037503  -0.065460  -0.001064   0.000097  -0.010722   0.007306
     24       0.298234   0.053183  -0.257197   0.076151  -0.356082   0.263933
     25      -0.417093   0.086582  -0.052852   0.123606  -0.322456   0.397352
     26       0.039585   0.554629   0.014154   0.794828   0.089383  -0.087407
     27      -0.016997  -0.006972   0.015534  -0.004965   0.114082   0.345050
     28       0.012983  -0.012254  -0.089100  -0.010000   0.317229  -0.028283
     29      -0.001979  -0.077476   0.012800  -0.054487  -0.056886  -0.027574
     30       0.109807   0.072140   0.441377  -0.050432   0.014999   0.148592
     31      -0.094739   0.114072  -0.334246  -0.086990  -0.355900  -0.720522
     32       0.007355   0.743746   0.021283  -0.554155   0.049947   0.096708
     33      -0.295897   0.007041  -0.512556  -0.002181  -0.153113   0.011717
     34      -0.034926   0.010816  -0.316573   0.001245  -0.473116   0.166603
     35       0.036010   0.067480   0.100359   0.017069   0.087765  -0.026886
     36      -0.336567   0.001839  -0.124289  -0.000516  -0.289491  -0.060568
     37      -0.032209   0.001665   0.099565   0.000389   0.061007  -0.002261
     38       0.039079   0.010188  -0.003525  -0.001584   0.019101   0.007093
                 24         25         26         27         28         29    
      0       0.003862   0.029722  -0.068425  -0.012272  -0.101651  -0.081879
      1       0.002586   0.005597   0.009509  -0.006128   0.154655   0.032294
      2      -0.000745  -0.003631   0.004935   0.002124  -0.013967   0.002961
      3      -0.010788   0.097873   0.031993   0.034236   0.084947   0.158221
      4       0.006047   0.040471  -0.027680  -0.024352   0.019908   0.031595
      5       0.000093  -0.015607   0.001307   0.000578  -0.011357  -0.019759
      6      -0.005042  -0.102548  -0.047211  -0.033752   0.039538  -0.158190
      7       0.004646   0.020283   0.024405   0.016463  -0.042646  -0.015791
      8      -0.000341   0.007070   0.001135   0.000658   0.002927   0.017192
      9      -0.000262   0.000694  -0.018375  -0.141242   0.029802  -0.117522
     10      -0.050779  -0.009285   0.057024  -0.064511   0.012062   0.004231
     11       0.007811   0.001229  -0.007006   0.023401  -0.004717   0.010675
     12       0.013466   0.056533  -0.067071  -0.098777  -0.047325   0.037408
     13       0.077437  -0.029473  -0.079528  -0.134618  -0.031060   0.051510
     14      -0.013123  -0.000920   0.018667   0.030375   0.009358  -0.011540
     15      -0.016028  -0.137609   0.218196   0.014228   0.079559   0.064925
     16      -0.010989   0.005405   0.007827  -0.009735   0.009664   0.014893
     17       0.003209   0.012323  -0.022207   0.000070  -0.009106  -0.008500
     18       0.070309   0.010861   0.045763   0.113324  -0.017322   0.079154
     19      -0.055347  -0.007311  -0.003905   0.065318   0.001927   0.002920
     20       0.001630   0.000097  -0.003872  -0.020957   0.001431  -0.008187
     21      -0.003779   0.020781  -0.023603   0.014911  -0.002384  -0.013807
     22       0.000518   0.000267  -0.016605   0.064699  -0.038977  -0.038228
     23       0.000324  -0.002016   0.004794  -0.011363   0.006213   0.007196
     24      -0.043536   0.388805   0.432990   0.129632  -0.434036  -0.059143
     25      -0.025560   0.338154   0.380695   0.064441  -0.529279  -0.215041
     26       0.008211  -0.089504  -0.101652  -0.022658   0.123570   0.038628
     27      -0.100751  -0.473735  -0.494557   0.183433  -0.496861   0.757795
     28       0.020622   0.076466   0.095951  -0.014897   0.034480  -0.157166
     29       0.007017   0.031926   0.030771  -0.015188   0.040797  -0.046653
     30      -0.004121   0.274541  -0.193634  -0.020368   0.111778   0.018158
     31       0.023074  -0.601488   0.311480   0.012632  -0.392859  -0.239949
     32      -0.003125   0.064931  -0.028042   0.000238   0.049025   0.034707
     33       0.169573   0.035123  -0.216956   0.530566   0.096896  -0.251897
     34       0.290459  -0.068200  -0.286783   0.705567   0.163653  -0.341189
     35      -0.062025   0.007249   0.065067  -0.160633  -0.034934   0.077480
     36      -0.917536   0.023501  -0.238401   0.234715   0.039122  -0.106676
     37       0.054173  -0.008117   0.033929   0.058373  -0.002635   0.028245
     38       0.082461  -0.001869   0.017762  -0.031872  -0.004030   0.007276
                 30         31         32         33         34         35    
      0      -0.062487  -0.001051  -0.005551  -0.048264   0.059497   0.056133
      1      -0.252442  -0.085597  -0.355349   0.150756   0.020191   0.027732
      2       0.044590   0.013191   0.055020  -0.018505  -0.008892  -0.009713
      3       0.107692  -0.009027   0.129387   0.008755  -0.044172   0.044982
      4       0.261255   0.096172   0.383700  -0.031778   0.040743  -0.050592
      5      -0.050481  -0.013984  -0.071248   0.004004  -0.002010   0.003455
      6      -0.187030   0.182213   0.028581  -0.060230   0.000468  -0.001820
      7       0.098391  -0.039149  -0.146689   0.010552  -0.000553   0.000200
      8       0.003118  -0.011322   0.019646   0.004145   0.000048   0.000141
      9       0.271376  -0.345735  -0.010916   0.100843   0.001128  -0.000750
     10      -0.409993  -0.149929   0.357534   0.001493  -0.000650   0.000073
     11       0.036689   0.056441  -0.053789  -0.009836  -0.000011   0.000063
     12      -0.077420   0.082097  -0.017319  -0.026974  -0.000216  -0.000350
     13       0.147690   0.130298  -0.181285   0.059846   0.000219  -0.000042
     14      -0.015220  -0.027926   0.029486  -0.006724  -0.000013   0.000042
     15       0.154027   0.002550  -0.046164   0.077054  -0.001739  -0.001486
     16       0.012425  -0.054050  -0.046330  -0.739570   0.000923   0.001875
     17      -0.016565   0.008051   0.011599   0.106237   0.000026  -0.000147
     18      -0.069732   0.099756  -0.006154  -0.034583  -0.000171   0.000038
     19       0.038691   0.052253  -0.050235  -0.011637   0.000070   0.000010
     20       0.000863  -0.017715   0.008325   0.005058  -0.000000  -0.000008
     21      -0.036030  -0.007996   0.008425   0.009220   0.000222   0.000122
     22       0.002705   0.029256   0.094360   0.446161  -0.000228  -0.000470
     23       0.003087  -0.003750  -0.015338  -0.069403   0.000019   0.000067
     24      -0.213719  -0.173898  -0.481344   0.040086   0.494999  -0.520556
     25      -0.008614  -0.045829  -0.165606  -0.010570  -0.471307   0.501505
     26       0.022194   0.024012   0.072585  -0.002415   0.024937  -0.027023
     27      -0.231318  -0.653055  -0.084750   0.102833  -0.003575   0.003094
     28       0.113609   0.081964  -0.141384  -0.026909   0.002215  -0.005988
     29       0.005165   0.048949   0.028503  -0.004911   0.000007   0.000623
     30      -0.268917  -0.066485  -0.235754   0.083255  -0.671064  -0.632668
     31       0.176385   0.038033   0.092194  -0.218508  -0.251889  -0.241168
     32      -0.002030   0.000819   0.008511   0.025286   0.103834   0.098427
     33       0.024064  -0.287409   0.153543  -0.253847  -0.000179  -0.000402
     34       0.298695  -0.357382   0.027672  -0.220850   0.000023  -0.000218
     35      -0.049283   0.083608  -0.019025   0.059355   0.000009   0.000070
     36       0.435670   0.261002  -0.339685  -0.006971   0.000189  -0.000067
     37      -0.024354   0.027453  -0.001763  -0.021201  -0.001191   0.000162
     38      -0.040169  -0.030349   0.034090   0.003903   0.000158  -0.000018
                  36         37         38    
      0      -0.000388   0.000612  -0.000216
      1      -0.000033   0.001097  -0.000109
      2       0.000041  -0.000229   0.000039
      3       0.000656   0.001095   0.000241
      4       0.000507   0.000441   0.000129
      5      -0.000147  -0.000202  -0.000047
      6      -0.002523  -0.009552  -0.000662
      7      -0.010700  -0.073210   0.003154
      8       0.001904   0.012269  -0.000448
      9      -0.000517  -0.000599  -0.000002
     10       0.001318   0.001016   0.001451
     11      -0.000124  -0.000121  -0.000244
     12       0.058467  -0.009566  -0.000223
     13      -0.044539   0.008447  -0.002051
     14       0.001219  -0.000374   0.000342
     15      -0.000824  -0.000099   0.000356
     16       0.000687  -0.001012   0.000512
     17      -0.000026   0.000169  -0.000108
     18       0.000340  -0.000048   0.007736
     19      -0.000348   0.003107   0.061815
     20       0.000008  -0.000487  -0.010339
     21       0.000125   0.000009  -0.000098
     22      -0.000336   0.000580  -0.000261
     23       0.000041  -0.000080   0.000063
     24      -0.000523  -0.003704  -0.000677
     25       0.000432   0.003225   0.000119
     26      -0.000027  -0.000184   0.000037
     27       0.020609   0.134116  -0.006181
     28       0.156115   0.960692  -0.045705
     29      -0.026128  -0.161413   0.007866
     30      -0.001165  -0.001111   0.000587
     31       0.000489  -0.000064   0.000228
     32       0.000039   0.000115  -0.000076
     33      -0.791110   0.127416  -0.010817
     34       0.585572  -0.092838   0.008346
     35      -0.013994   0.002059  -0.000260
     36       0.000198  -0.002459  -0.096373
     37       0.006295  -0.047972  -0.978935
     38      -0.001009   0.007684   0.161296


-----------
IR SPECTRUM
-----------

 Mode    freq (cm**-1)   T**2         TX         TY         TZ
-------------------------------------------------------------------
   6:       111.97   86.545732  ( -0.925325  -1.376675  -9.153921)
   7:       150.66    8.584366  ( -0.328468  -0.413147  -2.881976)
   8:       227.88   66.395001  ( -0.799761  -1.170606  -8.024031)
   9:       371.37    7.762783  ( -0.668765   2.683916  -0.334861)
  10:       409.63    8.617416  (  0.323275   0.401221   2.889971)
  11:       533.87   42.198970  ( -4.812444  -4.053889   1.614105)
  12:       542.27   22.752180  (  4.190854  -1.409300  -1.789637)
  13:       542.90  178.235063  (  1.993471   2.221556  13.012526)
  14:       562.71    1.088886  ( -0.475398   0.025237  -0.928572)
  15:       657.70  127.593549  (  1.183031   1.739672  11.098087)
  16:       708.78    7.888213  ( -0.309673  -0.456632  -2.753870)
  17:       767.88   39.885467  ( -0.532282  -0.906398  -6.227406)
  18:       779.44   12.738003  (  2.381737   2.591904  -0.589375)
  19:       831.22   74.305342  (  0.891711   1.277139   8.478155)
  20:       964.24   14.206173  ( -2.590607   2.733221  -0.156312)
  21:       983.93    0.070555  ( -0.012148   0.009490   0.265175)
  22:      1033.86   50.287630  ( -3.922392  -5.769403   1.271400)
  23:      1085.17   15.650165  (  3.927943  -0.366871  -0.294675)
  24:      1163.21  323.238781  (-16.074378  -7.574309   2.735505)
  25:      1214.40   12.130118  ( -0.135074   3.439672  -0.529653)
  26:      1224.35   61.015992  (  3.617326   6.777986  -1.410624)
  27:      1372.77    3.388587  ( -1.806663  -0.281737   0.212559)
  28:      1395.25   29.930646  (  4.787428   2.500310  -0.871566)
  29:      1461.61    9.375276  (  0.918732  -2.892339   0.406920)
  30:      1580.03  357.452582  ( 18.731005   1.509932  -2.078973)
  31:      1685.47  879.874935  (-25.388644 -14.606157   4.685284)
  32:      1711.95  297.743998  ( -1.778672  16.996269  -2.388967)
  33:      1810.03  920.768986  (  1.925773 -29.959339   4.415697)
  34:      3241.96   10.568834  ( -1.477934  -2.831934   0.603899)
  35:      3252.52   13.018702  ( -3.404508   1.183921   0.162347)
  36:      3539.30  310.559264  (-12.063279  12.820004  -0.827084)
  37:      3554.08  256.585649  (  1.333500  15.755298  -2.564761)
  38:      3714.14  488.211982  ( -9.830525 -19.389385   3.952786)

The first frequency considered to be a vibration is 6
The total number of vibrations considered is 33


--------------------------
THERMOCHEMISTRY AT 298.15K
--------------------------

Temperature         ... 298.15 K
Pressure            ... 1.00 atm
Total Mass          ... 113.10 AMU

Throughout the following assumptions are being made:
  (1) The electronic state is orbitally nondegenerate
  (2) There are no thermally accessible electronically excited states
  (3) Hindered rotations indicated by low frequency modes are not
      treated as such but are treated as vibrations and this may
      cause some error
  (4) All equations used are the standard statistical mechanics
      equations for an ideal gas
  (5) All vibrations are strictly harmonic

freq.     111.97  E(vib)   ...       0.45 
freq.     150.66  E(vib)   ...       0.40 
freq.     227.88  E(vib)   ...       0.33 
freq.     371.37  E(vib)   ...       0.21 
freq.     409.63  E(vib)   ...       0.19 
freq.     533.87  E(vib)   ...       0.13 
freq.     542.27  E(vib)   ...       0.12 
freq.     542.90  E(vib)   ...       0.12 
freq.     562.71  E(vib)   ...       0.11 
freq.     657.70  E(vib)   ...       0.08 
freq.     708.78  E(vib)   ...       0.07 
freq.     767.88  E(vib)   ...       0.06 
freq.     779.44  E(vib)   ...       0.05 
freq.     831.22  E(vib)   ...       0.04 
freq.     964.24  E(vib)   ...       0.03 
freq.     983.93  E(vib)   ...       0.02 
freq.    1033.86  E(vib)   ...       0.02 
freq.    1085.17  E(vib)   ...       0.02 
freq.    1163.21  E(vib)   ...       0.01 
freq.    1214.40  E(vib)   ...       0.01 
freq.    1224.35  E(vib)   ...       0.01 
freq.    1372.77  E(vib)   ...       0.01 
freq.    1395.25  E(vib)   ...       0.00 
freq.    1461.61  E(vib)   ...       0.00 
freq.    1580.03  E(vib)   ...       0.00 
freq.    1685.47  E(vib)   ...       0.00 
freq.    1711.95  E(vib)   ...       0.00 
freq.    1810.03  E(vib)   ...       0.00 
freq.    3241.96  E(vib)   ...       0.00 
freq.    3252.52  E(vib)   ...       0.00 
freq.    3539.30  E(vib)   ...       0.00 
freq.    3554.08  E(vib)   ...       0.00 
freq.    3714.14  E(vib)   ...       0.00 

------------
INNER ENERGY
------------

The inner energy is: U= E(el) + E(ZPE) + E(vib) + E(rot) + E(trans)
    E(el)   - is the total energy from the electronic structure calculation
              = E(kin-el) + E(nuc-el) + E(el-el) + E(nuc-nuc)
    E(ZPE)  - the the zero temperature vibrational energy from the frequency calculation
    E(vib)  - the the finite temperature correction to E(ZPE) due to population
              of excited vibrational states
    E(rot)  - is the rotational thermal energy
    E(trans)- is the translational thermal energy

Summary of contributions to the inner energy U:
Electronic energy                ...   -414.74725018 Eh
Zero point energy                ...      0.09838621 Eh      61.74 kcal/mol
Thermal vibrational correction   ...      0.00398599 Eh       2.50 kcal/mol
Thermal rotational correction    ...      0.00141627 Eh       0.89 kcal/mol
Thermal translational correction ...      0.00141627 Eh       0.89 kcal/mol
-----------------------------------------------------------------------
Total thermal energy                   -414.64204544 Eh


Summary of corrections to the electronic energy:
(perhaps to be used in another calculation)
Total thermal correction                  0.00681853 Eh       4.28 kcal/mol
Non-thermal (ZPE) correction              0.09838621 Eh      61.74 kcal/mol
-----------------------------------------------------------------------
Total correction                          0.10520474 Eh      66.02 kcal/mol


--------
ENTHALPY
--------

The enthalpy is H = U + kB*T
                kB is Boltzmann's constant
Total free energy                 ...   -414.64204544 Eh 
Thermal Enthalpy correction       ...      0.00094421 Eh       0.59 kcal/mol
-----------------------------------------------------------------------
Total Enthalpy                    ...   -414.64110123 Eh


Note: Only C1 symmetry has been detected, increase convergence thresholds 
      if your molecule has a higher symmetry. Symmetry factor of 1.0 is   
      used for the rotational entropy correction. 
 

Note: Rotational entropy computed according to Herzberg 
Infrared and Raman Spectra, Chapter V,1, Van Nostrand Reinhold, 1945 
Point Group:  C1, Symmetry Number:   1  
Rotational constants in cm-1:     0.126958     0.065965     0.043410 

Vibrational entropy computed according to the QRRHO of S. Grimme
Chem.Eur.J. 2012 18 9955


-------
ENTROPY
-------

The entropy contributions are T*S = T*(S(el)+S(vib)+S(rot)+S(trans))
     S(el)   - electronic entropy
     S(vib)  - vibrational entropy
     S(rot)  - rotational entropy
     S(trans)- translational entropy
The entropies will be listed as mutliplied by the temperature to get
units of energy

Electronic entropy                ...      0.00000000 Eh      0.00 kcal/mol
Vibrational entropy               ...      0.00648723 Eh      4.07 kcal/mol
Rotational entropy                ...      0.01324958 Eh      8.31 kcal/mol
Translational entropy             ...      0.01904554 Eh     11.95 kcal/mol
-----------------------------------------------------------------------
Final entropy term                ...      0.03878235 Eh     24.34 kcal/mol

In case the symmetry of your molecule has not been determined correctly
or in case you have a reason to use a different symmetry number we print 
out the resulting rotational entropy values for sn=1,12 :
 --------------------------------------------------------
|  sn= 1 | S(rot)=       0.01324958 Eh      8.31 kcal/mol|
|  sn= 2 | S(rot)=       0.01259513 Eh      7.90 kcal/mol|
|  sn= 3 | S(rot)=       0.01221229 Eh      7.66 kcal/mol|
|  sn= 4 | S(rot)=       0.01194067 Eh      7.49 kcal/mol|
|  sn= 5 | S(rot)=       0.01172998 Eh      7.36 kcal/mol|
|  sn= 6 | S(rot)=       0.01155784 Eh      7.25 kcal/mol|
|  sn= 7 | S(rot)=       0.01141229 Eh      7.16 kcal/mol|
|  sn= 8 | S(rot)=       0.01128621 Eh      7.08 kcal/mol|
|  sn= 9 | S(rot)=       0.01117500 Eh      7.01 kcal/mol|
|  sn=10 | S(rot)=       0.01107553 Eh      6.95 kcal/mol|
|  sn=11 | S(rot)=       0.01098554 Eh      6.89 kcal/mol|
|  sn=12 | S(rot)=       0.01090338 Eh      6.84 kcal/mol|
 --------------------------------------------------------


-------------------
GIBBS FREE ENERGY
-------------------

The Gibbs free energy is G = H - T*S

Total enthalpy                    ...   -414.64110123 Eh 
Total entropy correction          ...     -0.03878235 Eh    -24.34 kcal/mol
-----------------------------------------------------------------------
Final Gibbs free energy         ...   -414.67988359 Eh

For completeness - the Gibbs free energy minus the electronic energy
G-E(el)                           ...      0.06736659 Eh     42.27 kcal/mol


Timings for individual modules:

Sum of individual times         ...      128.873 sec (=   2.148 min)
GTO integral calculation        ...        4.724 sec (=   0.079 min)   3.7 %
SCF iterations                  ...       56.399 sec (=   0.940 min)  43.8 %
SCF Gradient evaluation         ...        9.639 sec (=   0.161 min)   7.5 %
Geometry relaxation             ...        0.364 sec (=   0.006 min)   0.3 %
Analytical frequency calculation...       57.746 sec (=   0.962 min)  44.8 %
                             ****ORCA TERMINATED NORMALLY****
TOTAL RUN TIME: 0 days 0 hours 2 minutes 9 seconds 587 msec
