13
* (null), Energy   -1000.0000000
C     1.393781    0.533776   -0.062691    0.112265    0.055464   -0.019425
C     1.168148   -0.779758    0.160441    0.089965   -0.101183    0.006911
N    -0.116197   -1.262094    0.357179   -0.003640    0.000400    0.000281
C    -1.173993   -0.446979    0.334824   -0.001500    0.000145    0.000125
N    -0.982141    0.854104    0.116669   -0.000700   -0.000085    0.000085
C     0.285100    1.476626   -0.101181   -0.002971    0.003749   -0.000294
O    -2.392774   -0.849779    0.515859    0.000076    0.000020   -0.000015
O     0.338858    2.672655   -0.290012    0.000244   -0.000939    0.000134
H     1.953348   -1.535224    0.201378   -1.041112    1.003010   -0.054046
H    -0.254993   -2.258813    0.525028    0.006188   -0.011976    0.001245
H     2.401547    0.916834   -0.219517   -1.265336   -0.482337    0.196854
H    -1.805505    1.460126    0.102516   -0.000804   -0.000435    0.000141
H    -2.476740   -1.809302    0.672136   -0.000133    0.000324   -0.000037
13
* Frequency(35) 3252.5220
C     1.406540    0.540079   -0.064898    0.112265    0.055464   -0.019425
C     1.178372   -0.791257    0.161226    0.089965   -0.101183    0.006911
N    -0.116610   -1.262048    0.357211   -0.003640    0.000400    0.000281
C    -1.174163   -0.446962    0.334838   -0.001500    0.000145    0.000125
N    -0.982220    0.854094    0.116679   -0.000700   -0.000085    0.000085
C     0.284762    1.477052   -0.101215   -0.002971    0.003749   -0.000294
O    -2.392766   -0.849777    0.515857    0.000076    0.000020   -0.000015
O     0.338886    2.672548   -0.289997    0.000244   -0.000939    0.000134
H     1.835031   -1.421237    0.195236   -1.041112    1.003010   -0.054046
H    -0.254290   -2.260174    0.525170    0.006188   -0.011976    0.001245
H     2.257748    0.862018   -0.197145   -1.265336   -0.482337    0.196854
H    -1.805596    1.460077    0.102532   -0.000804   -0.000435    0.000141
H    -2.476755   -1.809265    0.672132   -0.000133    0.000324   -0.000037
13
* Frequency(35) 3252.5220
C     1.417916    0.545699   -0.066866    0.112265    0.055464   -0.019425
C     1.187488   -0.801510    0.161927    0.089965   -0.101183    0.006911
N    -0.116979   -1.262008    0.357240   -0.003640    0.000400    0.000281
C    -1.174315   -0.446948    0.334851   -0.001500    0.000145    0.000125
N    -0.982291    0.854085    0.116687   -0.000700   -0.000085    0.000085
C     0.284461    1.477432   -0.101245   -0.002971    0.003749   -0.000294
O    -2.392758   -0.849775    0.515856    0.000076    0.000020   -0.000015
O     0.338911    2.672453   -0.289983    0.000244   -0.000939    0.000134
H     1.729536   -1.319602    0.189759   -1.041112    1.003010   -0.054046
H    -0.253663   -2.261388    0.525296    0.006188   -0.011976    0.001245
H     2.129532    0.813143   -0.177198   -1.265336   -0.482337    0.196854
H    -1.805678    1.460033    0.102546   -0.000804   -0.000435    0.000141
H    -2.476769   -1.809232    0.672128   -0.000133    0.000324   -0.000037
13
* Frequency(35) 3252.5220
C     1.426676    0.550027   -0.068382    0.112265    0.055464   -0.019425
C     1.194509   -0.809406    0.162466    0.089965   -0.101183    0.006911
N    -0.117263   -1.261977    0.357262   -0.003640    0.000400    0.000281
C    -1.174432   -0.446936    0.334861   -0.001500    0.000145    0.000125
N    -0.982346    0.854079    0.116694   -0.000700   -0.000085    0.000085
C     0.284229    1.477724   -0.101268   -0.002971    0.003749   -0.000294
O    -2.392752   -0.849773    0.515855    0.000076    0.000020   -0.000015
O     0.338930    2.672379   -0.289973    0.000244   -0.000939    0.000134
H     1.648294   -1.241334    0.185542   -1.041112    1.003010   -0.054046
H    -0.253180   -2.262322    0.525393    0.006188   -0.011976    0.001245
H     2.030793    0.775505   -0.161837   -1.265336   -0.482337    0.196854
H    -1.805741    1.459999    0.102557   -0.000804   -0.000435    0.000141
H    -2.476779   -1.809207    0.672125   -0.000133    0.000324   -0.000037
13
* Frequency(35) 3252.5220
C     1.431872    0.552594   -0.069281    0.112265    0.055464   -0.019425
C     1.198672   -0.814089    0.162786    0.089965   -0.101183    0.006911
N    -0.117432   -1.261958    0.357275   -0.003640    0.000400    0.000281
C    -1.174502   -0.446930    0.334867   -0.001500    0.000145    0.000125
N    -0.982379    0.854075    0.116698   -0.000700   -0.000085    0.000085
C     0.284092    1.477898   -0.101281   -0.002971    0.003749   -0.000294
O    -2.392748   -0.849772    0.515854    0.000076    0.000020   -0.000015
O     0.338941    2.672336   -0.289967    0.000244   -0.000939    0.000134
H     1.600109   -1.194913    0.183040   -1.041112    1.003010   -0.054046
H    -0.252894   -2.262877    0.525451    0.006188   -0.011976    0.001245
H     1.972231    0.753182   -0.152726   -1.265336   -0.482337    0.196854
H    -1.805778    1.459979    0.102564   -0.000804   -0.000435    0.000141
H    -2.476785   -1.809192    0.672124   -0.000133    0.000324   -0.000037
13
* Frequency(35) 3252.5220
C     1.432940    0.553122   -0.069466    0.112265    0.055464   -0.019425
C     1.199528   -0.815052    0.162852    0.089965   -0.101183    0.006911
N    -0.117467   -1.261954    0.357278   -0.003640    0.000400    0.000281
C    -1.174516   -0.446928    0.334868   -0.001500    0.000145    0.000125
N    -0.982385    0.854074    0.116698   -0.000700   -0.000085    0.000085
C     0.284064    1.477933   -0.101284   -0.002971    0.003749   -0.000294
O    -2.392748   -0.849772    0.515854    0.000076    0.000020   -0.000015
O     0.338943    2.672327   -0.289965    0.000244   -0.000939    0.000134
H     1.590204   -1.185369    0.182526   -1.041112    1.003010   -0.054046
H    -0.252835   -2.262991    0.525463    0.006188   -0.011976    0.001245
H     1.960192    0.748592   -0.150853   -1.265336   -0.482337    0.196854
H    -1.805785    1.459975    0.102565   -0.000804   -0.000435    0.000141
H    -2.476786   -1.809189    0.672123   -0.000133    0.000324   -0.000037
13
* Frequency(35) 3252.5220
C     1.429765    0.551553   -0.068917    0.112265    0.055464   -0.019425
C     1.196984   -0.812190    0.162656    0.089965   -0.101183    0.006911
N    -0.117364   -1.261966    0.357270   -0.003640    0.000400    0.000281
C    -1.174474   -0.446932    0.334864   -0.001500    0.000145    0.000125
N    -0.982365    0.854077    0.116696   -0.000700   -0.000085    0.000085
C     0.284148    1.477827   -0.101276   -0.002971    0.003749   -0.000294
O    -2.392750   -0.849773    0.515854    0.000076    0.000020   -0.000015
O     0.338936    2.672354   -0.289969    0.000244   -0.000939    0.000134
H     1.619650   -1.213739    0.184055   -1.041112    1.003010   -0.054046
H    -0.253010   -2.262652    0.525427    0.006188   -0.011976    0.001245
H     1.995980    0.762235   -0.156421   -1.265336   -0.482337    0.196854
H    -1.805763    1.459987    0.102561   -0.000804   -0.000435    0.000141
H    -2.476783   -1.809198    0.672124   -0.000133    0.000324   -0.000037
13
* Frequency(35) 3252.5220
C     1.422690    0.548058   -0.067693    0.112265    0.055464   -0.019425
C     1.191315   -0.805814    0.162221    0.089965   -0.101183    0.006911
N    -0.117134   -1.261991    0.357252   -0.003640    0.000400    0.000281
C    -1.174379   -0.446942    0.334856   -0.001500    0.000145    0.000125
N    -0.982321    0.854082    0.116691   -0.000700   -0.000085    0.000085
C     0.284335    1.477591   -0.101257   -0.002971    0.003749   -0.000294
O    -2.392755   -0.849774    0.515855    0.000076    0.000020   -0.000015
O     0.338921    2.672413   -0.289977    0.000244   -0.000939    0.000134
H     1.685258   -1.276945    0.187461   -1.041112    1.003010   -0.054046
H    -0.253400   -2.261897    0.525349    0.006188   -0.011976    0.001245
H     2.075718    0.792630   -0.168826   -1.265336   -0.482337    0.196854
H    -1.805712    1.460014    0.102552   -0.000804   -0.000435    0.000141
H    -2.476774   -1.809218    0.672127   -0.000133    0.000324   -0.000037
13
* Frequency(35) 3252.5220
C     1.412483    0.543015   -0.065926    0.112265    0.055464   -0.019425
C     1.183135   -0.796614    0.161592    0.089965   -0.101183    0.006911
N    -0.116803   -1.262027    0.357226   -0.003640    0.000400    0.000281
C    -1.174243   -0.446955    0.334845   -0.001500    0.000145    0.000125
N    -0.982258    0.854090    0.116683   -0.000700   -0.000085    0.000085
C     0.284605    1.477250   -0.101230   -0.002971    0.003749   -0.000294
O    -2.392762   -0.849776    0.515857    0.000076    0.000020   -0.000015
O     0.338899    2.672498   -0.289990    0.000244   -0.000939    0.000134
H     1.779918   -1.368141    0.192375   -1.041112    1.003010   -0.054046
H    -0.253963   -2.260808    0.525236    0.006188   -0.011976    0.001245
H     2.190765    0.836485   -0.186724   -1.265336   -0.482337    0.196854
H    -1.805639    1.460054    0.102539   -0.000804   -0.000435    0.000141
H    -2.476762   -1.809248    0.672130   -0.000133    0.000324   -0.000037
13
* Frequency(35) 3252.5220
C     1.400249    0.536971   -0.063810    0.112265    0.055464   -0.019425
C     1.173331   -0.785587    0.160839    0.089965   -0.101183    0.006911
N    -0.116406   -1.262071    0.357196   -0.003640    0.000400    0.000281
C    -1.174079   -0.446971    0.334831   -0.001500    0.000145    0.000125
N    -0.982181    0.854099    0.116674   -0.000700   -0.000085    0.000085
C     0.284929    1.476842   -0.101198   -0.002971    0.003749   -0.000294
O    -2.392770   -0.849778    0.515858    0.000076    0.000020   -0.000015
O     0.338872    2.672600   -0.290004    0.000244   -0.000939    0.000134
H     1.893372   -1.477442    0.198264   -1.041112    1.003010   -0.054046
H    -0.254637   -2.259503    0.525100    0.006188   -0.011976    0.001245
H     2.328653    0.889047   -0.208176   -1.265336   -0.482337    0.196854
H    -1.805551    1.460101    0.102524   -0.000804   -0.000435    0.000141
H    -2.476748   -1.809283    0.672134   -0.000133    0.000324   -0.000037
13
* Frequency(35) 3252.5220
C     1.387314    0.530581   -0.061571    0.112265    0.055464   -0.019425
C     1.162966   -0.773930    0.160043    0.089965   -0.101183    0.006911
N    -0.115987   -1.262117    0.357163   -0.003640    0.000400    0.000281
C    -1.173906   -0.446987    0.334817   -0.001500    0.000145    0.000125
N    -0.982101    0.854109    0.116664   -0.000700   -0.000085    0.000085
C     0.285271    1.476410   -0.101164   -0.002971    0.003749   -0.000294
O    -2.392779   -0.849781    0.515860    0.000076    0.000020   -0.000015
O     0.338844    2.672709   -0.290020    0.000244   -0.000939    0.000134
H     2.013325   -1.593005    0.204491   -1.041112    1.003010   -0.054046
H    -0.255350   -2.258123    0.524956    0.006188   -0.011976    0.001245
H     2.474440    0.944620   -0.230857   -1.265336   -0.482337    0.196854
H    -1.805459    1.460151    0.102508   -0.000804   -0.000435    0.000141
H    -2.476732   -1.809320    0.672138   -0.000133    0.000324   -0.000037
13
* Frequency(35) 3252.5220
C     1.375080    0.524537   -0.059455    0.112265    0.055464   -0.019425
C     1.153162   -0.762903    0.159290    0.089965   -0.101183    0.006911
N    -0.115590   -1.262160    0.357133   -0.003640    0.000400    0.000281
C    -1.173743   -0.447003    0.334803   -0.001500    0.000145    0.000125
N    -0.982024    0.854118    0.116655   -0.000700   -0.000085    0.000085
C     0.285595    1.476001   -0.101132   -0.002971    0.003749   -0.000294
O    -2.392787   -0.849783    0.515862    0.000076    0.000020   -0.000015
O     0.338818    2.672811   -0.290034    0.000244   -0.000939    0.000134
H     2.126778   -1.702307    0.210381   -1.041112    1.003010   -0.054046
H    -0.256024   -2.256818    0.524821    0.006188   -0.011976    0.001245
H     2.612328    0.997182   -0.252309   -1.265336   -0.482337    0.196854
H    -1.805371    1.460199    0.102492   -0.000804   -0.000435    0.000141
H    -2.476718   -1.809355    0.672142   -0.000133    0.000324   -0.000037
13
* Frequency(35) 3252.5220
C     1.364873    0.519494   -0.057688    0.112265    0.055464   -0.019425
C     1.144982   -0.753703    0.158662    0.089965   -0.101183    0.006911
N    -0.115259   -1.262197    0.357107   -0.003640    0.000400    0.000281
C    -1.173607   -0.447016    0.334792   -0.001500    0.000145    0.000125
N    -0.981961    0.854126    0.116647   -0.000700   -0.000085    0.000085
C     0.285865    1.475660   -0.101106   -0.002971    0.003749   -0.000294
O    -2.392794   -0.849785    0.515863    0.000076    0.000020   -0.000015
O     0.338795    2.672896   -0.290047    0.000244   -0.000939    0.000134
H     2.221438   -1.793502    0.215295   -1.041112    1.003010   -0.054046
H    -0.256587   -2.255730    0.524707    0.006188   -0.011976    0.001245
H     2.727375    1.041037   -0.270207   -1.265336   -0.482337    0.196854
H    -1.805298    1.460238    0.102479   -0.000804   -0.000435    0.000141
H    -2.476706   -1.809385    0.672146   -0.000133    0.000324   -0.000037
13
* Frequency(35) 3252.5220
C     1.357798    0.515998   -0.056464    0.112265    0.055464   -0.019425
C     1.139313   -0.747327    0.158226    0.089965   -0.101183    0.006911
N    -0.115030   -1.262222    0.357089   -0.003640    0.000400    0.000281
C    -1.173512   -0.447025    0.334784   -0.001500    0.000145    0.000125
N    -0.981916    0.854131    0.116642   -0.000700   -0.000085    0.000085
C     0.286052    1.475424   -0.101087   -0.002971    0.003749   -0.000294
O    -2.392799   -0.849786    0.515864    0.000076    0.000020   -0.000015
O     0.338780    2.672956   -0.290055    0.000244   -0.000939    0.000134
H     2.287046   -1.856709    0.218701   -1.041112    1.003010   -0.054046
H    -0.256976   -2.254975    0.524629    0.006188   -0.011976    0.001245
H     2.807113    1.071432   -0.282612   -1.265336   -0.482337    0.196854
H    -1.805247    1.460266    0.102471   -0.000804   -0.000435    0.000141
H    -2.476697   -1.809405    0.672148   -0.000133    0.000324   -0.000037
13
* Frequency(35) 3252.5220
C     1.354623    0.514430   -0.055915    0.112265    0.055464   -0.019425
C     1.136768   -0.744465    0.158031    0.089965   -0.101183    0.006911
N    -0.114927   -1.262233    0.357081   -0.003640    0.000400    0.000281
C    -1.173470   -0.447030    0.334780   -0.001500    0.000145    0.000125
N    -0.981897    0.854133    0.116639   -0.000700   -0.000085    0.000085
C     0.286137    1.475318   -0.101079   -0.002971    0.003749   -0.000294
O    -2.392801   -0.849786    0.515864    0.000076    0.000020   -0.000015
O     0.338773    2.672982   -0.290059    0.000244   -0.000939    0.000134
H     2.316493   -1.885078    0.220229   -1.041112    1.003010   -0.054046
H    -0.257151   -2.254636    0.524594    0.006188   -0.011976    0.001245
H     2.842901    1.085075   -0.288180   -1.265336   -0.482337    0.196854
H    -1.805224    1.460278    0.102467   -0.000804   -0.000435    0.000141
H    -2.476693   -1.809414    0.672149   -0.000133    0.000324   -0.000037
13
* Frequency(35) 3252.5220
C     1.355691    0.514957   -0.056100    0.112265    0.055464   -0.019425
C     1.137624   -0.745428    0.158096    0.089965   -0.101183    0.006911
N    -0.114962   -1.262230    0.357084   -0.003640    0.000400    0.000281
C    -1.173484   -0.447028    0.334782   -0.001500    0.000145    0.000125
N    -0.981903    0.854132    0.116640   -0.000700   -0.000085    0.000085
C     0.286108    1.475354   -0.101082   -0.002971    0.003749   -0.000294
O    -2.392800   -0.849786    0.515864    0.000076    0.000020   -0.000015
O     0.338775    2.672973   -0.290058    0.000244   -0.000939    0.000134
H     2.306587   -1.875535    0.219715   -1.041112    1.003010   -0.054046
H    -0.257093   -2.254750    0.524606    0.006188   -0.011976    0.001245
H     2.830862    1.080486   -0.286307   -1.265336   -0.482337    0.196854
H    -1.805232    1.460274    0.102468   -0.000804   -0.000435    0.000141
H    -2.476695   -1.809411    0.672149   -0.000133    0.000324   -0.000037
13
* Frequency(35) 3252.5220
C     1.360887    0.517524   -0.056999    0.112265    0.055464   -0.019425
C     1.141788   -0.750111    0.158416    0.089965   -0.101183    0.006911
N    -0.115130   -1.262211    0.357097   -0.003640    0.000400    0.000281
C    -1.173553   -0.447021    0.334787   -0.001500    0.000145    0.000125
N    -0.981936    0.854129    0.116644   -0.000700   -0.000085    0.000085
C     0.285971    1.475527   -0.101095   -0.002971    0.003749   -0.000294
O    -2.392797   -0.849785    0.515863    0.000076    0.000020   -0.000015
O     0.338787    2.672930   -0.290051    0.000244   -0.000939    0.000134
H     2.258403   -1.829114    0.217214   -1.041112    1.003010   -0.054046
H    -0.256806   -2.255304    0.524663    0.006188   -0.011976    0.001245
H     2.772300    1.058162   -0.277196   -1.265336   -0.482337    0.196854
H    -1.805269    1.460254    0.102474   -0.000804   -0.000435    0.000141
H    -2.476701   -1.809396    0.672147   -0.000133    0.000324   -0.000037
13
* Frequency(35) 3252.5220
C     1.369647    0.521852   -0.058515    0.112265    0.055464   -0.019425
C     1.148808   -0.758007    0.158955    0.089965   -0.101183    0.006911
N    -0.115414   -1.262180    0.357119   -0.003640    0.000400    0.000281
C    -1.173670   -0.447010    0.334797   -0.001500    0.000145    0.000125
N    -0.981990    0.854122    0.116651   -0.000700   -0.000085    0.000085
C     0.285739    1.475820   -0.101118   -0.002971    0.003749   -0.000294
O    -2.392791   -0.849784    0.515862    0.000076    0.000020   -0.000015
O     0.338806    2.672856   -0.290041    0.000244   -0.000939    0.000134
H     2.177161   -1.750845    0.212996   -1.041112    1.003010   -0.054046
H    -0.256323   -2.256239    0.524760    0.006188   -0.011976    0.001245
H     2.673561    1.020524   -0.261835   -1.265336   -0.482337    0.196854
H    -1.805332    1.460220    0.102485   -0.000804   -0.000435    0.000141
H    -2.476711   -1.809371    0.672144   -0.000133    0.000324   -0.000037
13
* Frequency(35) 3252.5220
C     1.381023    0.527473   -0.060483    0.112265    0.055464   -0.019425
C     1.157924   -0.768260    0.159656    0.089965   -0.101183    0.006911
N    -0.115783   -1.262139    0.357148   -0.003640    0.000400    0.000281
C    -1.173822   -0.446995    0.334810   -0.001500    0.000145    0.000125
N    -0.982061    0.854113    0.116659   -0.000700   -0.000085    0.000085
C     0.285438    1.476200   -0.101148   -0.002971    0.003749   -0.000294
O    -2.392783   -0.849782    0.515861    0.000076    0.000020   -0.000015
O     0.338830    2.672761   -0.290027    0.000244   -0.000939    0.000134
H     2.071665   -1.649211    0.207520   -1.041112    1.003010   -0.054046
H    -0.255696   -2.257452    0.524887    0.006188   -0.011976    0.001245
H     2.545345    0.971649   -0.241888   -1.265336   -0.482337    0.196854
H    -1.805413    1.460176    0.102500   -0.000804   -0.000435    0.000141
H    -2.476725   -1.809338    0.672140   -0.000133    0.000324   -0.000037
13
* Frequency(35) 3252.5220
C     1.393781    0.533776   -0.062691    0.112265    0.055464   -0.019425
C     1.168148   -0.779758    0.160441    0.089965   -0.101183    0.006911
N    -0.116197   -1.262094    0.357179   -0.003640    0.000400    0.000281
C    -1.173993   -0.446979    0.334824   -0.001500    0.000145    0.000125
N    -0.982141    0.854104    0.116669   -0.000700   -0.000085    0.000085
C     0.285100    1.476626   -0.101181   -0.002971    0.003749   -0.000294
O    -2.392774   -0.849779    0.515859    0.000076    0.000020   -0.000015
O     0.338858    2.672655   -0.290012    0.000244   -0.000939    0.000134
H     1.953348   -1.535224    0.201378   -1.041112    1.003010   -0.054046
H    -0.254993   -2.258813    0.525028    0.006188   -0.011976    0.001245
H     2.401547    0.916834   -0.219517   -1.265336   -0.482337    0.196854
H    -1.805505    1.460126    0.102516   -0.000804   -0.000435    0.000141
H    -2.476740   -1.809302    0.672136   -0.000133    0.000324   -0.000037
