13
* (null), Energy   -1000.0000000
C     1.646520    0.274089   -0.194207    0.260147   -0.352766    0.024424
C     1.420577   -1.039677    0.025063    0.772830   -0.595591    0.023754
N     0.135453   -1.525757    0.216409    0.251071   -0.023088   -0.035147
C    -0.924794   -0.711788    0.195329   -0.149354   -0.071471    0.062580
N    -0.732121    0.590004   -0.024536   -0.412280    0.155820   -0.010955
C     0.536344    1.216046   -0.237856   -0.010815    0.395981   -0.040881
O    -2.146146   -1.110315    0.377217   -0.448906   -0.078135    0.049803
O     0.589994    2.411153   -0.425909   -0.037847    0.500573   -0.078249
H     2.206629   -1.794809    0.067952    0.611560   -0.828793    0.061180
H     0.004335   -2.526891    0.371768   -0.040337    0.017511    0.042693
H     2.655430    0.658119   -0.342686    0.221593   -0.191154   -0.010367
H    -1.554927    1.198215   -0.034522   -0.582364   -0.037022    0.144364
H    -2.238862   -2.064583    0.566301   -0.644657   -0.076368    0.021621
13
* Frequency(17)  779.3397
C     1.676084    0.233999   -0.191432    0.260147   -0.352766    0.024424
C     1.508405   -1.107363    0.027763    0.772830   -0.595591    0.023754
N     0.163986   -1.528381    0.212415    0.251071   -0.023088   -0.035147
C    -0.941767   -0.719910    0.202441   -0.149354   -0.071471    0.062580
N    -0.778975    0.607712   -0.025781   -0.412280    0.155820   -0.010955
C     0.535115    1.261047   -0.242502   -0.010815    0.395981   -0.040881
O    -2.197162   -1.119194    0.382877   -0.448906   -0.078135    0.049803
O     0.585693    2.468040   -0.434802   -0.037847    0.500573   -0.078249
H     2.276130   -1.888997    0.074905    0.611560   -0.828793    0.061180
H    -0.000249   -2.524901    0.376620   -0.040337    0.017511    0.042693
H     2.680613    0.636395   -0.343864    0.221593   -0.191154   -0.010367
H    -1.621110    1.194008   -0.018116   -0.582364   -0.037022    0.144364
H    -2.312124   -2.073261    0.568759   -0.644657   -0.076368    0.021621
13
* Frequency(17)  779.3397
C     1.702445    0.198253   -0.188957    0.260147   -0.352766    0.024424
C     1.586715   -1.167714    0.030170    0.772830   -0.595591    0.023754
N     0.189427   -1.530720    0.208853    0.251071   -0.023088   -0.035147
C    -0.956901   -0.727152    0.208782   -0.149354   -0.071471    0.062580
N    -0.820751    0.623502   -0.026891   -0.412280    0.155820   -0.010955
C     0.534019    1.301171   -0.246644   -0.010815    0.395981   -0.040881
O    -2.242649   -1.127112    0.387924   -0.448906   -0.078135    0.049803
O     0.581858    2.518763   -0.442731   -0.037847    0.500573   -0.078249
H     2.338099   -1.972978    0.081104    0.611560   -0.828793    0.061180
H    -0.004336   -2.523126    0.380946   -0.040337    0.017511    0.042693
H     2.703067    0.617025   -0.344915    0.221593   -0.191154   -0.010367
H    -1.680120    1.190256   -0.003488   -0.582364   -0.037022    0.144364
H    -2.377447   -2.081000    0.570949   -0.644657   -0.076368    0.021621
13
* Frequency(17)  779.3397
C     1.722745    0.170726   -0.187051    0.260147   -0.352766    0.024424
C     1.647022   -1.214190    0.032023    0.772830   -0.595591    0.023754
N     0.209019   -1.532522    0.206111    0.251071   -0.023088   -0.035147
C    -0.968556   -0.732729    0.213665   -0.149354   -0.071471    0.062580
N    -0.852923    0.635661   -0.027746   -0.412280    0.155820   -0.010955
C     0.533175    1.332071   -0.249835   -0.010815    0.395981   -0.040881
O    -2.277679   -1.133209    0.391810   -0.448906   -0.078135    0.049803
O     0.578904    2.557825   -0.448837   -0.037847    0.500573   -0.078249
H     2.385821   -2.037652    0.085878    0.611560   -0.828793    0.061180
H    -0.007484   -2.521760    0.384277   -0.040337    0.017511    0.042693
H     2.720358    0.602109   -0.345724    0.221593   -0.191154   -0.010367
H    -1.725564    1.187367    0.007778   -0.582364   -0.037022    0.144364
H    -2.427752   -2.086959    0.572637   -0.644657   -0.076368    0.021621
13
* Frequency(17)  779.3397
C     1.734785    0.154399   -0.185920    0.260147   -0.352766    0.024424
C     1.682790   -1.241755    0.033123    0.772830   -0.595591    0.023754
N     0.220639   -1.533590    0.204484    0.251071   -0.023088   -0.035147
C    -0.975468   -0.736037    0.216561   -0.149354   -0.071471    0.062580
N    -0.872004    0.642873   -0.028253   -0.412280    0.155820   -0.010955
C     0.532675    1.350398   -0.251727   -0.010815    0.395981   -0.040881
O    -2.298455   -1.136825    0.394115   -0.448906   -0.078135    0.049803
O     0.577153    2.580992   -0.452458   -0.037847    0.500573   -0.078249
H     2.414126   -2.076010    0.088709    0.611560   -0.828793    0.061180
H    -0.009351   -2.520949    0.386253   -0.040337    0.017511    0.042693
H     2.730614    0.593262   -0.346203    0.221593   -0.191154   -0.010367
H    -1.752517    1.185654    0.014459   -0.582364   -0.037022    0.144364
H    -2.457588   -2.090494    0.573637   -0.644657   -0.076368    0.021621
13
* Frequency(17)  779.3397
C     1.737261    0.151043   -0.185688    0.260147   -0.352766    0.024424
C     1.690143   -1.247422    0.033349    0.772830   -0.595591    0.023754
N     0.223028   -1.533810    0.204150    0.251071   -0.023088   -0.035147
C    -0.976889   -0.736717    0.217157   -0.149354   -0.071471    0.062580
N    -0.875926    0.644355   -0.028358   -0.412280    0.155820   -0.010955
C     0.532572    1.354166   -0.252116   -0.010815    0.395981   -0.040881
O    -2.302726   -1.137568    0.394589   -0.448906   -0.078135    0.049803
O     0.576793    2.585755   -0.453203   -0.037847    0.500573   -0.078249
H     2.419944   -2.083896    0.089292    0.611560   -0.828793    0.061180
H    -0.009734   -2.520783    0.386660   -0.040337    0.017511    0.042693
H     2.732723    0.591443   -0.346302    0.221593   -0.191154   -0.010367
H    -1.758058    1.185302    0.015833   -0.582364   -0.037022    0.144364
H    -2.463722   -2.091220    0.573843   -0.644657   -0.076368    0.021621
13
* Frequency(17)  779.3397
C     1.729903    0.161020   -0.186379    0.260147   -0.352766    0.024424
C     1.668285   -1.230576    0.032677    0.772830   -0.595591    0.023754
N     0.215926   -1.533157    0.205144    0.251071   -0.023088   -0.035147
C    -0.972665   -0.734695    0.215387   -0.149354   -0.071471    0.062580
N    -0.864265    0.639948   -0.028048   -0.412280    0.155820   -0.010955
C     0.532878    1.342966   -0.250959   -0.010815    0.395981   -0.040881
O    -2.290030   -1.135358    0.393180   -0.448906   -0.078135    0.049803
O     0.577863    2.571597   -0.450990   -0.037847    0.500573   -0.078249
H     2.402647   -2.060454    0.087561    0.611560   -0.828793    0.061180
H    -0.008594   -2.521278    0.385452   -0.040337    0.017511    0.042693
H     2.726455    0.596850   -0.346009    0.221593   -0.191154   -0.010367
H    -1.741587    1.186349    0.011749   -0.582364   -0.037022    0.144364
H    -2.445488   -2.089060    0.573231   -0.644657   -0.076368    0.021621
13
* Frequency(17)  779.3397
C     1.713509    0.183250   -0.187918    0.260147   -0.352766    0.024424
C     1.619583   -1.193044    0.031180    0.772830   -0.595591    0.023754
N     0.200105   -1.531702    0.207358    0.251071   -0.023088   -0.035147
C    -0.963253   -0.730191    0.211443   -0.149354   -0.071471    0.062580
N    -0.838285    0.630128   -0.027357   -0.412280    0.155820   -0.010955
C     0.533559    1.318012   -0.248383   -0.010815    0.395981   -0.040881
O    -2.261741   -1.130435    0.390042   -0.448906   -0.078135    0.049803
O     0.580248    2.540052   -0.446059   -0.037847    0.500573   -0.078249
H     2.364108   -2.008226    0.083706    0.611560   -0.828793    0.061180
H    -0.006052   -2.522382    0.382762   -0.040337    0.017511    0.042693
H     2.712491    0.608896   -0.345356    0.221593   -0.191154   -0.010367
H    -1.704888    1.188682    0.002652   -0.582364   -0.037022    0.144364
H    -2.404864   -2.084248    0.571869   -0.644657   -0.076368    0.021621
13
* Frequency(17)  779.3397
C     1.689856    0.215325   -0.190139    0.260147   -0.352766    0.024424
C     1.549316   -1.138892    0.029020    0.772830   -0.595591    0.023754
N     0.177277   -1.529603    0.210554    0.251071   -0.023088   -0.035147
C    -0.949674   -0.723693    0.205753   -0.149354   -0.071471    0.062580
N    -0.800799    0.615961   -0.026361   -0.412280    0.155820   -0.010955
C     0.534542    1.282009   -0.244666   -0.010815    0.395981   -0.040881
O    -2.220926   -1.123330    0.385514   -0.448906   -0.078135    0.049803
O     0.583689    2.494539   -0.438944   -0.037847    0.500573   -0.078249
H     2.308504   -1.932871    0.078143    0.611560   -0.828793    0.061180
H    -0.002384   -2.523974    0.378880   -0.040337    0.017511    0.042693
H     2.692343    0.626276   -0.344413    0.221593   -0.191154   -0.010367
H    -1.651938    1.192048   -0.010474   -0.582364   -0.037022    0.144364
H    -2.346250   -2.077304    0.569903   -0.644657   -0.076368    0.021621
13
* Frequency(17)  779.3397
C     1.661507    0.253767   -0.192800    0.260147   -0.352766    0.024424
C     1.465098   -1.073988    0.026432    0.772830   -0.595591    0.023754
N     0.149917   -1.527087    0.214384    0.251071   -0.023088   -0.035147
C    -0.933398   -0.715905    0.198934   -0.149354   -0.071471    0.062580
N    -0.755872    0.598981   -0.025168   -0.412280    0.155820   -0.010955
C     0.535721    1.238857   -0.240211   -0.010815    0.395981   -0.040881
O    -2.172007   -1.114816    0.380086   -0.448906   -0.078135    0.049803
O     0.587814    2.439990   -0.430417   -0.037847    0.500573   -0.078249
H     2.241860   -1.842554    0.071476    0.611560   -0.828793    0.061180
H     0.002012   -2.525882    0.374227   -0.040337    0.017511    0.042693
H     2.668195    0.647107   -0.343283    0.221593   -0.191154   -0.010367
H    -1.588476    1.196082   -0.026206   -0.582364   -0.037022    0.144364
H    -2.276000   -2.068982    0.567547   -0.644657   -0.076368    0.021621
13
* Frequency(17)  779.3397
C     1.631533    0.294411   -0.195614    0.260147   -0.352766    0.024424
C     1.376055   -1.005366    0.023695    0.772830   -0.595591    0.023754
N     0.120989   -1.524427    0.218434    0.251071   -0.023088   -0.035147
C    -0.916190   -0.707670    0.191724   -0.149354   -0.071471    0.062580
N    -0.708370    0.581028   -0.023905   -0.412280    0.155820   -0.010955
C     0.536967    1.193234   -0.235501   -0.010815    0.395981   -0.040881
O    -2.120286   -1.105813    0.374348   -0.448906   -0.078135    0.049803
O     0.592174    2.382316   -0.421402   -0.037847    0.500573   -0.078249
H     2.171398   -1.747064    0.064427    0.611560   -0.828793    0.061180
H     0.006659   -2.527899    0.369309   -0.040337    0.017511    0.042693
H     2.642664    0.669131   -0.342089    0.221593   -0.191154   -0.010367
H    -1.521378    1.200348   -0.042839   -0.582364   -0.037022    0.144364
H    -2.201725   -2.060183    0.565056   -0.644657   -0.076368    0.021621
13
* Frequency(17)  779.3397
C     1.603184    0.332853   -0.198276    0.260147   -0.352766    0.024424
C     1.291838   -0.940463    0.021107    0.772830   -0.595591    0.023754
N     0.093629   -1.521911    0.222264    0.251071   -0.023088   -0.035147
C    -0.899914   -0.699882    0.184904   -0.149354   -0.071471    0.062580
N    -0.663443    0.564047   -0.022711   -0.412280    0.155820   -0.010955
C     0.538146    1.150083   -0.231046   -0.010815    0.395981   -0.040881
O    -2.071367   -1.097299    0.368921   -0.448906   -0.078135    0.049803
O     0.596298    2.327767   -0.412875   -0.037847    0.500573   -0.078249
H     2.104755   -1.656747    0.057760    0.611560   -0.828793    0.061180
H     0.011055   -2.529808    0.364656   -0.040337    0.017511    0.042693
H     2.618517    0.689961   -0.340959    0.221593   -0.191154   -0.010367
H    -1.457916    1.204382   -0.058571   -0.582364   -0.037022    0.144364
H    -2.131474   -2.051861    0.562700   -0.644657   -0.076368    0.021621
13
* Frequency(17)  779.3397
C     1.579531    0.364927   -0.200496    0.260147   -0.352766    0.024424
C     1.221570   -0.886311    0.018947    0.772830   -0.595591    0.023754
N     0.070801   -1.519811    0.225459    0.251071   -0.023088   -0.035147
C    -0.886335   -0.693384    0.179214   -0.149354   -0.071471    0.062580
N    -0.625958    0.549880   -0.021715   -0.412280    0.155820   -0.010955
C     0.539129    1.114079   -0.227329   -0.010815    0.395981   -0.040881
O    -2.030551   -1.090195    0.364393   -0.448906   -0.078135    0.049803
O     0.599740    2.282254   -0.405760   -0.037847    0.500573   -0.078249
H     2.049150   -1.581392    0.052198    0.611560   -0.828793    0.061180
H     0.014722   -2.531400    0.360774   -0.040337    0.017511    0.042693
H     2.598369    0.707341   -0.340016    0.221593   -0.191154   -0.010367
H    -1.404966    1.207748   -0.071697   -0.582364   -0.037022    0.144364
H    -2.072861   -2.044918    0.560734   -0.644657   -0.076368    0.021621
13
* Frequency(17)  779.3397
C     1.563138    0.387158   -0.202036    0.260147   -0.352766    0.024424
C     1.172869   -0.848778    0.017450    0.772830   -0.595591    0.023754
N     0.054980   -1.518356    0.227674    0.251071   -0.023088   -0.035147
C    -0.876923   -0.688880    0.175271   -0.149354   -0.071471    0.062580
N    -0.599977    0.540061   -0.021025   -0.412280    0.155820   -0.010955
C     0.539810    1.089126   -0.224753   -0.010815    0.395981   -0.040881
O    -2.002263   -1.085271    0.361254   -0.448906   -0.078135    0.049803
O     0.602125    2.250709   -0.400829   -0.037847    0.500573   -0.078249
H     2.010612   -1.529164    0.048343    0.611560   -0.828793    0.061180
H     0.017264   -2.532503    0.358084   -0.040337    0.017511    0.042693
H     2.584405    0.719387   -0.339363    0.221593   -0.191154   -0.010367
H    -1.368267    1.210081   -0.080794   -0.582364   -0.037022    0.144364
H    -2.032237   -2.040105    0.559371   -0.644657   -0.076368    0.021621
13
* Frequency(17)  779.3397
C     1.555780    0.397135   -0.202726    0.260147   -0.352766    0.024424
C     1.151010   -0.831932    0.016778    0.772830   -0.595591    0.023754
N     0.047878   -1.517703    0.228668    0.251071   -0.023088   -0.035147
C    -0.872699   -0.686858    0.173501   -0.149354   -0.071471    0.062580
N    -0.588316    0.535653   -0.020715   -0.412280    0.155820   -0.010955
C     0.540116    1.077926   -0.223596   -0.010815    0.395981   -0.040881
O    -1.989566   -1.083061    0.359846   -0.448906   -0.078135    0.049803
O     0.603195    2.236551   -0.398616   -0.037847    0.500573   -0.078249
H     1.993314   -1.505722    0.046612    0.611560   -0.828793    0.061180
H     0.018405   -2.532999    0.356876   -0.040337    0.017511    0.042693
H     2.578137    0.724794   -0.339070    0.221593   -0.191154   -0.010367
H    -1.351796    1.211128   -0.084877   -0.582364   -0.037022    0.144364
H    -2.014003   -2.037945    0.558760   -0.644657   -0.076368    0.021621
13
* Frequency(17)  779.3397
C     1.558255    0.393779   -0.202494    0.260147   -0.352766    0.024424
C     1.158363   -0.837599    0.017004    0.772830   -0.595591    0.023754
N     0.050267   -1.517923    0.228334    0.251071   -0.023088   -0.035147
C    -0.874120   -0.687538    0.174096   -0.149354   -0.071471    0.062580
N    -0.592239    0.537136   -0.020819   -0.412280    0.155820   -0.010955
C     0.540013    1.081693   -0.223985   -0.010815    0.395981   -0.040881
O    -1.993837   -1.083804    0.360320   -0.448906   -0.078135    0.049803
O     0.602835    2.241313   -0.399360   -0.037847    0.500573   -0.078249
H     1.999133   -1.513608    0.047194    0.611560   -0.828793    0.061180
H     0.018021   -2.532832    0.357283   -0.040337    0.017511    0.042693
H     2.580246    0.722975   -0.339169    0.221593   -0.191154   -0.010367
H    -1.357337    1.210776   -0.083504   -0.582364   -0.037022    0.144364
H    -2.020137   -2.038672    0.558966   -0.644657   -0.076368    0.021621
13
* Frequency(17)  779.3397
C     1.570295    0.377452   -0.201364    0.260147   -0.352766    0.024424
C     1.194131   -0.865164    0.018103    0.772830   -0.595591    0.023754
N     0.061887   -1.518992    0.226707    0.251071   -0.023088   -0.035147
C    -0.881032   -0.690846    0.176992   -0.149354   -0.071471    0.062580
N    -0.611320    0.544348   -0.021326   -0.412280    0.155820   -0.010955
C     0.539513    1.100020   -0.225877   -0.010815    0.395981   -0.040881
O    -2.014613   -1.087420    0.362625   -0.448906   -0.078135    0.049803
O     0.601083    2.264481   -0.402982   -0.037847    0.500573   -0.078249
H     2.027437   -1.551966    0.050026    0.611560   -0.828793    0.061180
H     0.016154   -2.532022    0.359259   -0.040337    0.017511    0.042693
H     2.590501    0.714128   -0.339648    0.221593   -0.191154   -0.010367
H    -1.384290    1.209063   -0.076822   -0.582364   -0.037022    0.144364
H    -2.049973   -2.042206    0.559966   -0.644657   -0.076368    0.021621
13
* Frequency(17)  779.3397
C     1.590595    0.349924   -0.199458    0.260147   -0.352766    0.024424
C     1.254438   -0.911640    0.019957    0.772830   -0.595591    0.023754
N     0.081479   -1.520793    0.223965    0.251071   -0.023088   -0.035147
C    -0.892687   -0.696423    0.181876   -0.149354   -0.071471    0.062580
N    -0.643491    0.556507   -0.022181   -0.412280    0.155820   -0.010955
C     0.538669    1.130920   -0.229068   -0.010815    0.395981   -0.040881
O    -2.049643   -1.093518    0.366511   -0.448906   -0.078135    0.049803
O     0.598130    2.303542   -0.409088   -0.037847    0.500573   -0.078249
H     2.075159   -1.616640    0.054800    0.611560   -0.828793    0.061180
H     0.013007   -2.530655    0.362590   -0.040337    0.017511    0.042693
H     2.607793    0.699212   -0.340457    0.221593   -0.191154   -0.010367
H    -1.429734    1.206174   -0.065557   -0.582364   -0.037022    0.144364
H    -2.100278   -2.048165    0.561653   -0.644657   -0.076368    0.021621
13
* Frequency(17)  779.3397
C     1.616956    0.314179   -0.196983    0.260147   -0.352766    0.024424
C     1.332749   -0.971991    0.022364    0.772830   -0.595591    0.023754
N     0.106920   -1.523133    0.220403    0.251071   -0.023088   -0.035147
C    -0.907821   -0.703665    0.188217   -0.149354   -0.071471    0.062580
N    -0.685268    0.572296   -0.023291   -0.412280    0.155820   -0.010955
C     0.537573    1.171045   -0.233210   -0.010815    0.395981   -0.040881
O    -2.095130   -1.101435    0.371558   -0.448906   -0.078135    0.049803
O     0.594295    2.354265   -0.417017   -0.037847    0.500573   -0.078249
H     2.137129   -1.700621    0.060999    0.611560   -0.828793    0.061180
H     0.008919   -2.528881    0.366916   -0.040337    0.017511    0.042693
H     2.630247    0.679842   -0.341508    0.221593   -0.191154   -0.010367
H    -1.488744    1.202422   -0.050929   -0.582364   -0.037022    0.144364
H    -2.165601   -2.055904    0.563844   -0.644657   -0.076368    0.021621
13
* Frequency(17)  779.3397
C     1.646520    0.274089   -0.194207    0.260147   -0.352766    0.024424
C     1.420577   -1.039677    0.025063    0.772830   -0.595591    0.023754
N     0.135453   -1.525757    0.216409    0.251071   -0.023088   -0.035147
C    -0.924794   -0.711788    0.195329   -0.149354   -0.071471    0.062580
N    -0.732121    0.590004   -0.024536   -0.412280    0.155820   -0.010955
C     0.536344    1.216046   -0.237856   -0.010815    0.395981   -0.040881
O    -2.146146   -1.110315    0.377217   -0.448906   -0.078135    0.049803
O     0.589994    2.411153   -0.425909   -0.037847    0.500573   -0.078249
H     2.206629   -1.794809    0.067952    0.611560   -0.828793    0.061180
H     0.004335   -2.526891    0.371768   -0.040337    0.017511    0.042693
H     2.655430    0.658119   -0.342686    0.221593   -0.191154   -0.010367
H    -1.554927    1.198215   -0.034522   -0.582364   -0.037022    0.144364
H    -2.238862   -2.064583    0.566301   -0.644657   -0.076368    0.021621
