13
* (null), Energy   -1000.0000000
C     1.646520    0.274089   -0.194207    0.010705   -0.002600   -0.001295
C     1.420577   -1.039677    0.025063   -0.015243    0.025089   -0.002591
N     0.135453   -1.525757    0.216409   -0.003859    0.032294   -0.004303
C    -0.924794   -0.711788    0.195329    0.000970   -0.118351    0.011344
N    -0.732121    0.590004   -0.024536    0.041061    0.150307   -0.025435
C     0.536344    1.216046   -0.237856   -0.067618   -0.022042    0.009730
O    -2.146146   -1.110315    0.377217    0.132550   -0.109868    0.007304
O     0.589994    2.411153   -0.425909   -0.001712    0.002846    0.000041
H     2.206629   -1.794809    0.067952   -0.066628   -0.021575    0.003863
H     0.004335   -2.526891    0.371768   -0.256538    0.061964    0.036889
H     2.655430    0.658119   -0.342686    0.070071   -0.151833    0.017765
H    -1.554927    1.198215   -0.034522    0.337534    0.553899   -0.115555
H    -2.238862   -2.064583    0.566301   -1.829821    0.123711    0.148884
13
* Frequency(24) 1186.0445
C     1.647737    0.273793   -0.194354    0.010705   -0.002600   -0.001295
C     1.418844   -1.036826    0.024769   -0.015243    0.025089   -0.002591
N     0.135014   -1.522087    0.215920   -0.003859    0.032294   -0.004303
C    -0.924684   -0.725238    0.196618    0.000970   -0.118351    0.011344
N    -0.727455    0.607086   -0.027427    0.041061    0.150307   -0.025435
C     0.528660    1.213541   -0.236750   -0.067618   -0.022042    0.009730
O    -2.131083   -1.122801    0.378048    0.132550   -0.109868    0.007304
O     0.589799    2.411476   -0.425905   -0.001712    0.002846    0.000041
H     2.199057   -1.797261    0.068391   -0.066628   -0.021575    0.003863
H    -0.024819   -2.519849    0.375960   -0.256538    0.061964    0.036889
H     2.663393    0.640864   -0.340667    0.070071   -0.151833    0.017765
H    -1.516568    1.261163   -0.047655    0.337534    0.553899   -0.115555
H    -2.446812   -2.050524    0.583221   -1.829821    0.123711    0.148884
13
* Frequency(24) 1186.0445
C     1.648821    0.273530   -0.194486    0.010705   -0.002600   -0.001295
C     1.417300   -1.034284    0.024507   -0.015243    0.025089   -0.002591
N     0.134623   -1.518814    0.215484   -0.003859    0.032294   -0.004303
C    -0.924585   -0.737230    0.197767    0.000970   -0.118351    0.011344
N    -0.723294    0.622316   -0.030004    0.041061    0.150307   -0.025435
C     0.521808    1.211307   -0.235764   -0.067618   -0.022042    0.009730
O    -2.117651   -1.133933    0.378788    0.132550   -0.109868    0.007304
O     0.589626    2.411765   -0.425901   -0.001712    0.002846    0.000041
H     2.192306   -1.799447    0.068782   -0.066628   -0.021575    0.003863
H    -0.050814   -2.513570    0.379698   -0.256538    0.061964    0.036889
H     2.670493    0.625478   -0.338867    0.070071   -0.151833    0.017765
H    -1.482366    1.317289   -0.059364    0.337534    0.553899   -0.115555
H    -2.632227   -2.037988    0.598308   -1.829821    0.123711    0.148884
13
* Frequency(24) 1186.0445
C     1.649657    0.273327   -0.194587    0.010705   -0.002600   -0.001295
C     1.416110   -1.032326    0.024304   -0.015243    0.025089   -0.002591
N     0.134322   -1.516294    0.215148   -0.003859    0.032294   -0.004303
C    -0.924510   -0.746465    0.198652    0.000970   -0.118351    0.011344
N    -0.720090    0.634046   -0.031989    0.041061    0.150307   -0.025435
C     0.516531    1.209587   -0.235005   -0.067618   -0.022042    0.009730
O    -2.107308   -1.142507    0.379358    0.132550   -0.109868    0.007304
O     0.589492    2.411987   -0.425897   -0.001712    0.002846    0.000041
H     2.187107   -1.801131    0.069084   -0.066628   -0.021575    0.003863
H    -0.070832   -2.508735    0.382577   -0.256538    0.061964    0.036889
H     2.675961    0.613630   -0.337481    0.070071   -0.151833    0.017765
H    -1.456027    1.360512   -0.068381    0.337534    0.553899   -0.115555
H    -2.775015   -2.028334    0.609926   -1.829821    0.123711    0.148884
13
* Frequency(24) 1186.0445
C     1.650152    0.273207   -0.194647    0.010705   -0.002600   -0.001295
C     1.415405   -1.031165    0.024184   -0.015243    0.025089   -0.002591
N     0.134144   -1.514800    0.214949   -0.003859    0.032294   -0.004303
C    -0.924465   -0.751943    0.199177    0.000970   -0.118351    0.011344
N    -0.718190    0.641002   -0.033166    0.041061    0.150307   -0.025435
C     0.513402    1.208567   -0.234555   -0.067618   -0.022042    0.009730
O    -2.101173   -1.147592    0.379696    0.132550   -0.109868    0.007304
O     0.589413    2.412118   -0.425895   -0.001712    0.002846    0.000041
H     2.184023   -1.802129    0.069263   -0.066628   -0.021575    0.003863
H    -0.082705   -2.505867    0.384284   -0.256538    0.061964    0.036889
H     2.679204    0.606603   -0.336659    0.070071   -0.151833    0.017765
H    -1.440405    1.386148   -0.073729    0.337534    0.553899   -0.115555
H    -2.859703   -2.022609    0.616816   -1.829821    0.123711    0.148884
13
* Frequency(24) 1186.0445
C     1.650254    0.273182   -0.194659    0.010705   -0.002600   -0.001295
C     1.415260   -1.030926    0.024160   -0.015243    0.025089   -0.002591
N     0.134107   -1.514492    0.214908   -0.003859    0.032294   -0.004303
C    -0.924456   -0.753069    0.199285    0.000970   -0.118351    0.011344
N    -0.717799    0.642432   -0.033408    0.041061    0.150307   -0.025435
C     0.512759    1.208357   -0.234462   -0.067618   -0.022042    0.009730
O    -2.099912   -1.148637    0.379765    0.132550   -0.109868    0.007304
O     0.589397    2.412145   -0.425895   -0.001712    0.002846    0.000041
H     2.183389   -1.802335    0.069299   -0.066628   -0.021575    0.003863
H    -0.085146   -2.505277    0.384635   -0.256538    0.061964    0.036889
H     2.679871    0.605158   -0.336490    0.070071   -0.151833    0.017765
H    -1.437193    1.391418   -0.074828    0.337534    0.553899   -0.115555
H    -2.877112   -2.021432    0.618233   -1.829821    0.123711    0.148884
13
* Frequency(24) 1186.0445
C     1.649951    0.273256   -0.194622    0.010705   -0.002600   -0.001295
C     1.415691   -1.031636    0.024233   -0.015243    0.025089   -0.002591
N     0.134216   -1.515406    0.215030   -0.003859    0.032294   -0.004303
C    -0.924483   -0.749722    0.198965    0.000970   -0.118351    0.011344
N    -0.718960    0.638181   -0.032689    0.041061    0.150307   -0.025435
C     0.514671    1.208981   -0.234737   -0.067618   -0.022042    0.009730
O    -2.103661   -1.145529    0.379559    0.132550   -0.109868    0.007304
O     0.589445    2.412065   -0.425896   -0.001712    0.002846    0.000041
H     2.185274   -1.801724    0.069190   -0.066628   -0.021575    0.003863
H    -0.077890   -2.507030    0.383592   -0.256538    0.061964    0.036889
H     2.677889    0.609453   -0.336992    0.070071   -0.151833    0.017765
H    -1.446740    1.375751   -0.071560    0.337534    0.553899   -0.115555
H    -2.825358   -2.024931    0.614022   -1.829821    0.123711    0.148884
13
* Frequency(24) 1186.0445
C     1.649277    0.273419   -0.194541    0.010705   -0.002600   -0.001295
C     1.416652   -1.033217    0.024396   -0.015243    0.025089   -0.002591
N     0.134459   -1.517441    0.215301   -0.003859    0.032294   -0.004303
C    -0.924544   -0.742263    0.198250    0.000970   -0.118351    0.011344
N    -0.721548    0.628709   -0.031086    0.041061    0.150307   -0.025435
C     0.518932    1.210370   -0.235351   -0.067618   -0.022042    0.009730
O    -2.112014   -1.138606    0.379098    0.132550   -0.109868    0.007304
O     0.589553    2.411886   -0.425899   -0.001712    0.002846    0.000041
H     2.189472   -1.800365    0.068947   -0.066628   -0.021575    0.003863
H    -0.061724   -2.510935    0.381267   -0.256538    0.061964    0.036889
H     2.673474    0.619021   -0.338111    0.070071   -0.151833    0.017765
H    -1.468011    1.340846   -0.064278    0.337534    0.553899   -0.115555
H    -2.710048   -2.032727    0.604640   -1.829821    0.123711    0.148884
13
* Frequency(24) 1186.0445
C     1.648303    0.273656   -0.194423    0.010705   -0.002600   -0.001295
C     1.418038   -1.035498    0.024632   -0.015243    0.025089   -0.002591
N     0.134810   -1.520377    0.215692   -0.003859    0.032294   -0.004303
C    -0.924632   -0.731503    0.197218    0.000970   -0.118351    0.011344
N    -0.725281    0.615043   -0.028773    0.041061    0.150307   -0.025435
C     0.525080    1.212374   -0.236235   -0.067618   -0.022042    0.009730
O    -2.124066   -1.128617    0.378434    0.132550   -0.109868    0.007304
O     0.589709    2.411627   -0.425902   -0.001712    0.002846    0.000041
H     2.195530   -1.798403    0.068595   -0.066628   -0.021575    0.003863
H    -0.038399   -2.516569    0.377913   -0.256538    0.061964    0.036889
H     2.667103    0.632826   -0.339727    0.070071   -0.151833    0.017765
H    -1.498700    1.290484   -0.053772    0.337534    0.553899   -0.115555
H    -2.543677   -2.043975    0.591103   -1.829821    0.123711    0.148884
13
* Frequency(24) 1186.0445
C     1.647137    0.273939   -0.194282    0.010705   -0.002600   -0.001295
C     1.419699   -1.038232    0.024914   -0.015243    0.025089   -0.002591
N     0.135231   -1.523896    0.216161   -0.003859    0.032294   -0.004303
C    -0.924738   -0.718606    0.195982    0.000970   -0.118351    0.011344
N    -0.729756    0.598663   -0.026002    0.041061    0.150307   -0.025435
C     0.532449    1.214776   -0.237295   -0.067618   -0.022042    0.009730
O    -2.138510   -1.116644    0.377638    0.132550   -0.109868    0.007304
O     0.589895    2.411317   -0.425907   -0.001712    0.002846    0.000041
H     2.202791   -1.796052    0.068174   -0.066628   -0.021575    0.003863
H    -0.010443   -2.523321    0.373893   -0.256538    0.061964    0.036889
H     2.659467    0.649372   -0.341663    0.070071   -0.151833    0.017765
H    -1.535482    1.230124   -0.041179    0.337534    0.553899   -0.115555
H    -2.344275   -2.057456    0.574878   -1.829821    0.123711    0.148884
13
* Frequency(24) 1186.0445
C     1.645903    0.274239   -0.194133    0.010705   -0.002600   -0.001295
C     1.421455   -1.041123    0.025213   -0.015243    0.025089   -0.002591
N     0.135675   -1.527617    0.216657   -0.003859    0.032294   -0.004303
C    -0.924850   -0.704970    0.194675    0.000970   -0.118351    0.011344
N    -0.734487    0.581345   -0.023071    0.041061    0.150307   -0.025435
C     0.540239    1.217315   -0.238417   -0.067618   -0.022042    0.009730
O    -2.153782   -1.103985    0.376797    0.132550   -0.109868    0.007304
O     0.590092    2.410989   -0.425912   -0.001712    0.002846    0.000041
H     2.210468   -1.793566    0.067729   -0.066628   -0.021575    0.003863
H     0.019114   -2.530460    0.369643   -0.256538    0.061964    0.036889
H     2.651393    0.666865   -0.343709    0.070071   -0.151833    0.017765
H    -1.574372    1.166306   -0.027865    0.337534    0.553899   -0.115555
H    -2.133450   -2.071709    0.557725   -1.829821    0.123711    0.148884
13
* Frequency(24) 1186.0445
C     1.644737    0.274522   -0.193991    0.010705   -0.002600   -0.001295
C     1.423116   -1.043857    0.025495   -0.015243    0.025089   -0.002591
N     0.136096   -1.531136    0.217126   -0.003859    0.032294   -0.004303
C    -0.924956   -0.692072    0.193439    0.000970   -0.118351    0.011344
N    -0.738961    0.564966   -0.020299    0.041061    0.150307   -0.025435
C     0.547608    1.219717   -0.239477   -0.067618   -0.022042    0.009730
O    -2.168226   -1.092013    0.376001    0.132550   -0.109868    0.007304
O     0.590279    2.410679   -0.425916   -0.001712    0.002846    0.000041
H     2.217728   -1.791215    0.067308   -0.066628   -0.021575    0.003863
H     0.047070   -2.537213    0.365623   -0.256538    0.061964    0.036889
H     2.643757    0.683411   -0.345645    0.070071   -0.151833    0.017765
H    -1.611154    1.105946   -0.015273    0.337534    0.553899   -0.115555
H    -1.934048   -2.085191    0.541500   -1.829821    0.123711    0.148884
13
* Frequency(24) 1186.0445
C     1.643763    0.274758   -0.193874    0.010705   -0.002600   -0.001295
C     1.424502   -1.046138    0.025731   -0.015243    0.025089   -0.002591
N     0.136447   -1.534072    0.217517   -0.003859    0.032294   -0.004303
C    -0.925044   -0.681312    0.192408    0.000970   -0.118351    0.011344
N    -0.742694    0.551300   -0.017987    0.041061    0.150307   -0.025435
C     0.553756    1.221722   -0.240361   -0.067618   -0.022042    0.009730
O    -2.180278   -1.082023    0.375336    0.132550   -0.109868    0.007304
O     0.590435    2.410420   -0.425920   -0.001712    0.002846    0.000041
H     2.223786   -1.789253    0.066957   -0.066628   -0.021575    0.003863
H     0.070395   -2.542847    0.362269   -0.256538    0.061964    0.036889
H     2.637386    0.697216   -0.347260    0.070071   -0.151833    0.017765
H    -1.641843    1.055584   -0.004767    0.337534    0.553899   -0.115555
H    -1.767677   -2.096439    0.527963   -1.829821    0.123711    0.148884
13
* Frequency(24) 1186.0445
C     1.643089    0.274922   -0.193792    0.010705   -0.002600   -0.001295
C     1.425462   -1.047719    0.025894   -0.015243    0.025089   -0.002591
N     0.136690   -1.536108    0.217788   -0.003859    0.032294   -0.004303
C    -0.925105   -0.673853    0.191693    0.000970   -0.118351    0.011344
N    -0.745282    0.541828   -0.016384    0.041061    0.150307   -0.025435
C     0.558017    1.223111   -0.240975   -0.067618   -0.022042    0.009730
O    -2.188631   -1.075100    0.374876    0.132550   -0.109868    0.007304
O     0.590543    2.410241   -0.425922   -0.001712    0.002846    0.000041
H     2.227985   -1.787894    0.066714   -0.066628   -0.021575    0.003863
H     0.086561   -2.546751    0.359944   -0.256538    0.061964    0.036889
H     2.632971    0.706784   -0.348380    0.070071   -0.151833    0.017765
H    -1.663114    1.020679    0.002515    0.337534    0.553899   -0.115555
H    -1.652367   -2.104234    0.518581   -1.829821    0.123711    0.148884
13
* Frequency(24) 1186.0445
C     1.642786    0.274996   -0.193755    0.010705   -0.002600   -0.001295
C     1.425894   -1.048428    0.025967   -0.015243    0.025089   -0.002591
N     0.136799   -1.537021    0.217910   -0.003859    0.032294   -0.004303
C    -0.925133   -0.670506    0.191372    0.000970   -0.118351    0.011344
N    -0.746443    0.537576   -0.015665    0.041061    0.150307   -0.025435
C     0.559929    1.223734   -0.241250   -0.067618   -0.022042    0.009730
O    -2.192380   -1.071992    0.374670    0.132550   -0.109868    0.007304
O     0.590591    2.410160   -0.425924   -0.001712    0.002846    0.000041
H     2.229869   -1.787283    0.066604   -0.066628   -0.021575    0.003863
H     0.093817   -2.548504    0.358901   -0.256538    0.061964    0.036889
H     2.630989    0.711079   -0.348882    0.070071   -0.151833    0.017765
H    -1.672660    1.005012    0.005784    0.337534    0.553899   -0.115555
H    -1.600613   -2.107733    0.514370   -1.829821    0.123711    0.148884
13
* Frequency(24) 1186.0445
C     1.642888    0.274971   -0.193768    0.010705   -0.002600   -0.001295
C     1.425749   -1.048190    0.025942   -0.015243    0.025089   -0.002591
N     0.136762   -1.536714    0.217869   -0.003859    0.032294   -0.004303
C    -0.925123   -0.671632    0.191480    0.000970   -0.118351    0.011344
N    -0.746053    0.539006   -0.015907    0.041061    0.150307   -0.025435
C     0.559286    1.223524   -0.241157   -0.067618   -0.022042    0.009730
O    -2.191119   -1.073038    0.374739    0.132550   -0.109868    0.007304
O     0.590575    2.410187   -0.425923   -0.001712    0.002846    0.000041
H     2.229236   -1.787489    0.066641   -0.066628   -0.021575    0.003863
H     0.091376   -2.547914    0.359252   -0.256538    0.061964    0.036889
H     2.631655    0.709634   -0.348713    0.070071   -0.151833    0.017765
H    -1.669449    1.010282    0.004684    0.337534    0.553899   -0.115555
H    -1.618022   -2.106556    0.515787   -1.829821    0.123711    0.148884
13
* Frequency(24) 1186.0445
C     1.643383    0.274851   -0.193828    0.010705   -0.002600   -0.001295
C     1.425043   -1.047029    0.025823   -0.015243    0.025089   -0.002591
N     0.136584   -1.535219    0.217670   -0.003859    0.032294   -0.004303
C    -0.925078   -0.677110    0.192005    0.000970   -0.118351    0.011344
N    -0.744152    0.545963   -0.017084    0.041061    0.150307   -0.025435
C     0.556157    1.222504   -0.240707   -0.067618   -0.022042    0.009730
O    -2.184984   -1.078122    0.375077    0.132550   -0.109868    0.007304
O     0.590496    2.410319   -0.425921   -0.001712    0.002846    0.000041
H     2.226152   -1.788487    0.066820   -0.066628   -0.021575    0.003863
H     0.079503   -2.545047    0.360959   -0.256538    0.061964    0.036889
H     2.634898    0.702607   -0.347891    0.070071   -0.151833    0.017765
H    -1.653827    1.035918   -0.000664    0.337534    0.553899   -0.115555
H    -1.702710   -2.100831    0.522677   -1.829821    0.123711    0.148884
13
* Frequency(24) 1186.0445
C     1.644219    0.274648   -0.193929    0.010705   -0.002600   -0.001295
C     1.423854   -1.045071    0.025620   -0.015243    0.025089   -0.002591
N     0.136283   -1.532699    0.217334   -0.003859    0.032294   -0.004303
C    -0.925003   -0.686345    0.192890    0.000970   -0.118351    0.011344
N    -0.740948    0.557692   -0.019069    0.041061    0.150307   -0.025435
C     0.550880    1.220784   -0.239948   -0.067618   -0.022042    0.009730
O    -2.174641   -1.086696    0.375647    0.132550   -0.109868    0.007304
O     0.590362    2.410541   -0.425918   -0.001712    0.002846    0.000041
H     2.220953   -1.790171    0.067121   -0.066628   -0.021575    0.003863
H     0.059484   -2.540211    0.363838   -0.256538    0.061964    0.036889
H     2.640366    0.690759   -0.346505    0.070071   -0.151833    0.017765
H    -1.627488    1.079141   -0.009681    0.337534    0.553899   -0.115555
H    -1.845498   -2.091177    0.534295   -1.829821    0.123711    0.148884
13
* Frequency(24) 1186.0445
C     1.645303    0.274384   -0.194060    0.010705   -0.002600   -0.001295
C     1.422309   -1.042528    0.025358   -0.015243    0.025089   -0.002591
N     0.135892   -1.529427    0.216898   -0.003859    0.032294   -0.004303
C    -0.924904   -0.698337    0.194040    0.000970   -0.118351    0.011344
N    -0.736787    0.572923   -0.021646    0.041061    0.150307   -0.025435
C     0.544028    1.218551   -0.238962   -0.067618   -0.022042    0.009730
O    -2.161210   -1.097829    0.376387    0.132550   -0.109868    0.007304
O     0.590188    2.410829   -0.425914   -0.001712    0.002846    0.000041
H     2.214201   -1.792357    0.067513   -0.066628   -0.021575    0.003863
H     0.033489   -2.533933    0.367576   -0.256538    0.061964    0.036889
H     2.647467    0.675374   -0.344705    0.070071   -0.151833    0.017765
H    -1.593286    1.135267   -0.021390    0.337534    0.553899   -0.115555
H    -2.030913   -2.078642    0.549382   -1.829821    0.123711    0.148884
13
* Frequency(24) 1186.0445
C     1.646520    0.274089   -0.194207    0.010705   -0.002600   -0.001295
C     1.420577   -1.039677    0.025063   -0.015243    0.025089   -0.002591
N     0.135453   -1.525757    0.216409   -0.003859    0.032294   -0.004303
C    -0.924794   -0.711788    0.195329    0.000970   -0.118351    0.011344
N    -0.732121    0.590004   -0.024536    0.041061    0.150307   -0.025435
C     0.536344    1.216046   -0.237856   -0.067618   -0.022042    0.009730
O    -2.146146   -1.110315    0.377217    0.132550   -0.109868    0.007304
O     0.589994    2.411153   -0.425909   -0.001712    0.002846    0.000041
H     2.206629   -1.794809    0.067952   -0.066628   -0.021575    0.003863
H     0.004335   -2.526891    0.371768   -0.256538    0.061964    0.036889
H     2.655430    0.658119   -0.342686    0.070071   -0.151833    0.017765
H    -1.554927    1.198215   -0.034522    0.337534    0.553899   -0.115555
H    -2.238862   -2.064583    0.566301   -1.829821    0.123711    0.148884
