13
* (null), Energy   -1000.0000000
C     1.646520    0.274089   -0.194207   -0.007458    0.002267   -0.004158
C     1.420577   -1.039677    0.025063   -0.001031   -0.003035   -0.032018
N     0.135453   -1.525757    0.216409   -0.014028   -0.032599   -0.184540
C    -0.924794   -0.711788    0.195329   -0.001720   -0.014427   -0.050387
N    -0.732121    0.590004   -0.024536    0.011291    0.009164    0.099207
C     0.536344    1.216046   -0.237856    0.001268    0.013183    0.081514
O    -2.146146   -1.110315    0.377217   -0.006144    0.004753   -0.031097
O     0.589994    2.411153   -0.425909    0.001929   -0.003241   -0.024697
H     2.206629   -1.794809    0.067952    0.022681    0.033649    0.176179
H     0.004335   -2.526891    0.371768    0.199199    0.263145    1.866434
H     2.655430    0.658119   -0.342686   -0.006908    0.012787    0.027840
H    -1.554927    1.198215   -0.034522   -0.042319   -0.071551   -0.355594
H    -2.238862   -2.064583    0.566301    0.038825    0.087583    0.416638
13
* Frequency(14)  631.7881
C     1.645672    0.274346   -0.194680   -0.007458    0.002267   -0.004158
C     1.420460   -1.040022    0.021425   -0.001031   -0.003035   -0.032018
N     0.133859   -1.529461    0.195437   -0.014028   -0.032599   -0.184540
C    -0.924990   -0.713427    0.189603   -0.001720   -0.014427   -0.050387
N    -0.730838    0.591046   -0.013262    0.011291    0.009164    0.099207
C     0.536488    1.217544   -0.228592    0.001268    0.013183    0.081514
O    -2.146844   -1.109774    0.373683   -0.006144    0.004753   -0.031097
O     0.590213    2.410784   -0.428716    0.001929   -0.003241   -0.024697
H     2.209207   -1.790985    0.087974    0.022681    0.033649    0.176179
H     0.026973   -2.496986    0.583879    0.199199    0.263145    1.866434
H     2.654645    0.659572   -0.339522   -0.006908    0.012787    0.027840
H    -1.559736    1.190084   -0.074934   -0.042319   -0.071551   -0.355594
H    -2.234450   -2.054629    0.613650    0.038825    0.087583    0.416638
13
* Frequency(14)  631.7881
C     1.644917    0.274576   -0.195101   -0.007458    0.002267   -0.004158
C     1.420355   -1.040330    0.018180   -0.001031   -0.003035   -0.032018
N     0.132437   -1.532765    0.176737   -0.014028   -0.032599   -0.184540
C    -0.925164   -0.714889    0.184497   -0.001720   -0.014427   -0.050387
N    -0.729694    0.591974   -0.003209    0.011291    0.009164    0.099207
C     0.536617    1.218880   -0.220332    0.001268    0.013183    0.081514
O    -2.147467   -1.109293    0.370532   -0.006144    0.004753   -0.031097
O     0.590408    2.410456   -0.431219    0.001929   -0.003241   -0.024697
H     2.211505   -1.787575    0.105826    0.022681    0.033649    0.176179
H     0.047158   -2.470321    0.773004    0.199199    0.263145    1.866434
H     2.653945    0.660867   -0.336701   -0.006908    0.012787    0.027840
H    -1.564024    1.182833   -0.110966   -0.042319   -0.071551   -0.355594
H    -2.230516   -2.045755    0.655868    0.038825    0.087583    0.416638
13
* Frequency(14)  631.7881
C     1.644335    0.274753   -0.195426   -0.007458    0.002267   -0.004158
C     1.420275   -1.040567    0.015682   -0.001031   -0.003035   -0.032018
N     0.131343   -1.535308    0.162337   -0.014028   -0.032599   -0.184540
C    -0.925298   -0.716015    0.180565   -0.001720   -0.014427   -0.050387
N    -0.728813    0.592689    0.004532    0.011291    0.009164    0.099207
C     0.536716    1.219909   -0.213972    0.001268    0.013183    0.081514
O    -2.147946   -1.108922    0.368106   -0.006144    0.004753   -0.031097
O     0.590559    2.410203   -0.433146    0.001929   -0.003241   -0.024697
H     2.213275   -1.784950    0.119574    0.022681    0.033649    0.176179
H     0.062702   -2.449787    0.918649    0.199199    0.263145    1.866434
H     2.653406    0.661865   -0.334529   -0.006908    0.012787    0.027840
H    -1.567327    1.177250   -0.138714   -0.042319   -0.071551   -0.355594
H    -2.227486   -2.038920    0.688380    0.038825    0.087583    0.416638
13
* Frequency(14)  631.7881
C     1.643990    0.274858   -0.195618   -0.007458    0.002267   -0.004158
C     1.420227   -1.040707    0.014200   -0.001031   -0.003035   -0.032018
N     0.130693   -1.536817    0.153796   -0.014028   -0.032599   -0.184540
C    -0.925378   -0.716683    0.178233   -0.001720   -0.014427   -0.050387
N    -0.728290    0.593114    0.009124    0.011291    0.009164    0.099207
C     0.536774    1.220519   -0.210199    0.001268    0.013183    0.081514
O    -2.148231   -1.108702    0.366667   -0.006144    0.004753   -0.031097
O     0.590648    2.410053   -0.434289    0.001929   -0.003241   -0.024697
H     2.214325   -1.783392    0.127728    0.022681    0.033649    0.176179
H     0.071921   -2.437608    1.005031    0.199199    0.263145    1.866434
H     2.653086    0.662457   -0.333240   -0.006908    0.012787    0.027840
H    -1.569285    1.173939   -0.155172   -0.042319   -0.071551   -0.355594
H    -2.225689   -2.034867    0.707663    0.038825    0.087583    0.416638
13
* Frequency(14)  631.7881
C     1.643919    0.274880   -0.195658   -0.007458    0.002267   -0.004158
C     1.420217   -1.040736    0.013895   -0.001031   -0.003035   -0.032018
N     0.130560   -1.537127    0.152040   -0.014028   -0.032599   -0.184540
C    -0.925394   -0.716820    0.177754   -0.001720   -0.014427   -0.050387
N    -0.728183    0.593201    0.010067    0.011291    0.009164    0.099207
C     0.536786    1.220644   -0.209423    0.001268    0.013183    0.081514
O    -2.148289   -1.108657    0.366371   -0.006144    0.004753   -0.031097
O     0.590667    2.410022   -0.434524    0.001929   -0.003241   -0.024697
H     2.214540   -1.783072    0.129404    0.022681    0.033649    0.176179
H     0.073817   -2.435105    1.022789    0.199199    0.263145    1.866434
H     2.653020    0.662579   -0.332975   -0.006908    0.012787    0.027840
H    -1.569688    1.173258   -0.158555   -0.042319   -0.071551   -0.355594
H    -2.225320   -2.034033    0.711627    0.038825    0.087583    0.416638
13
* Frequency(14)  631.7881
C     1.644130    0.274815   -0.195540   -0.007458    0.002267   -0.004158
C     1.420246   -1.040650    0.014801   -0.001031   -0.003035   -0.032018
N     0.130957   -1.536205    0.157260   -0.014028   -0.032599   -0.184540
C    -0.925345   -0.716412    0.179179   -0.001720   -0.014427   -0.050387
N    -0.728502    0.592942    0.007262    0.011291    0.009164    0.099207
C     0.536750    1.220271   -0.211729    0.001268    0.013183    0.081514
O    -2.148115   -1.108791    0.367250   -0.006144    0.004753   -0.031097
O     0.590612    2.410114   -0.433825    0.001929   -0.003241   -0.024697
H     2.213899   -1.784024    0.124421    0.022681    0.033649    0.176179
H     0.068183   -2.442547    0.969999    0.199199    0.263145    1.866434
H     2.653216    0.662217   -0.333763   -0.006908    0.012787    0.027840
H    -1.568491    1.175282   -0.148498   -0.042319   -0.071551   -0.355594
H    -2.226418   -2.036510    0.699843    0.038825    0.087583    0.416638
13
* Frequency(14)  631.7881
C     1.644600    0.274673   -0.195278   -0.007458    0.002267   -0.004158
C     1.420311   -1.040459    0.016819   -0.001031   -0.003035   -0.032018
N     0.131841   -1.534151    0.168889   -0.014028   -0.032599   -0.184540
C    -0.925237   -0.715503    0.182354   -0.001720   -0.014427   -0.050387
N    -0.729214    0.592364    0.001010    0.011291    0.009164    0.099207
C     0.536670    1.219440   -0.216866    0.001268    0.013183    0.081514
O    -2.147728   -1.109091    0.369210   -0.006144    0.004753   -0.031097
O     0.590491    2.410318   -0.432269    0.001929   -0.003241   -0.024697
H     2.212470   -1.786144    0.113319    0.022681    0.033649    0.176179
H     0.055630   -2.459130    0.852381    0.199199    0.263145    1.866434
H     2.653651    0.661411   -0.335517   -0.006908    0.012787    0.027840
H    -1.565824    1.179790   -0.126089   -0.042319   -0.071551   -0.355594
H    -2.228865   -2.042030    0.673587    0.038825    0.087583    0.416638
13
* Frequency(14)  631.7881
C     1.645278    0.274466   -0.194900   -0.007458    0.002267   -0.004158
C     1.420405   -1.040183    0.019730   -0.001031   -0.003035   -0.032018
N     0.133116   -1.531187    0.185668   -0.014028   -0.032599   -0.184540
C    -0.925081   -0.714191    0.186935   -0.001720   -0.014427   -0.050387
N    -0.730240    0.591531   -0.008010    0.011291    0.009164    0.099207
C     0.536555    1.218242   -0.224277    0.001268    0.013183    0.081514
O    -2.147170   -1.109523    0.372037   -0.006144    0.004753   -0.031097
O     0.590315    2.410613   -0.430023    0.001929   -0.003241   -0.024697
H     2.210408   -1.789204    0.097300    0.022681    0.033649    0.176179
H     0.037518   -2.483056    0.682682    0.199199    0.263145    1.866434
H     2.654279    0.660249   -0.338048   -0.006908    0.012787    0.027840
H    -1.561976    1.186296   -0.093758   -0.042319   -0.071551   -0.355594
H    -2.232395   -2.049993    0.635706    0.038825    0.087583    0.416638
13
* Frequency(14)  631.7881
C     1.646090    0.274219   -0.194447   -0.007458    0.002267   -0.004158
C     1.420517   -1.039852    0.023219   -0.001031   -0.003035   -0.032018
N     0.134645   -1.527635    0.205778   -0.014028   -0.032599   -0.184540
C    -0.924893   -0.712619    0.192426   -0.001720   -0.014427   -0.050387
N    -0.731471    0.590532   -0.018821    0.011291    0.009164    0.099207
C     0.536417    1.216805   -0.233160    0.001268    0.013183    0.081514
O    -2.146500   -1.110041    0.375426   -0.006144    0.004753   -0.031097
O     0.590105    2.410966   -0.427332    0.001929   -0.003241   -0.024697
H     2.207936   -1.792871    0.078101    0.022681    0.033649    0.176179
H     0.015811   -2.511731    0.479290    0.199199    0.263145    1.866434
H     2.655032    0.658855   -0.341082   -0.006908    0.012787    0.027840
H    -1.557365    1.194093   -0.055007   -0.042319   -0.071551   -0.355594
H    -2.236626   -2.059537    0.590303    0.038825    0.087583    0.416638
13
* Frequency(14)  631.7881
C     1.646950    0.273958   -0.193968   -0.007458    0.002267   -0.004158
C     1.420636   -1.039502    0.026908   -0.001031   -0.003035   -0.032018
N     0.136261   -1.523879    0.227040   -0.014028   -0.032599   -0.184540
C    -0.924695   -0.710956    0.198231   -0.001720   -0.014427   -0.050387
N    -0.732772    0.589476   -0.030252    0.011291    0.009164    0.099207
C     0.536271    1.215286   -0.242552    0.001268    0.013183    0.081514
O    -2.145792   -1.110588    0.379009   -0.006144    0.004753   -0.031097
O     0.589883    2.411340   -0.424487    0.001929   -0.003241   -0.024697
H     2.205323   -1.796747    0.057802    0.022681    0.033649    0.176179
H    -0.007140   -2.542050    0.264246    0.199199    0.263145    1.866434
H     2.655828    0.657382   -0.344290   -0.006908    0.012787    0.027840
H    -1.552489    1.202337   -0.014037   -0.042319   -0.071551   -0.355594
H    -2.241099   -2.069628    0.542300    0.038825    0.087583    0.416638
13
* Frequency(14)  631.7881
C     1.647762    0.273711   -0.193514   -0.007458    0.002267   -0.004158
C     1.420748   -1.039172    0.030397   -0.001031   -0.003035   -0.032018
N     0.137790   -1.520326    0.247150   -0.014028   -0.032599   -0.184540
C    -0.924507   -0.709384    0.203722   -0.001720   -0.014427   -0.050387
N    -0.734002    0.588478   -0.041062    0.011291    0.009164    0.099207
C     0.536133    1.213850   -0.251435    0.001268    0.013183    0.081514
O    -2.145123   -1.111106    0.382398   -0.006144    0.004753   -0.031097
O     0.589672    2.411693   -0.421795    0.001929   -0.003241   -0.024697
H     2.202851   -1.800414    0.038604    0.022681    0.033649    0.176179
H    -0.028848   -2.570726    0.060854    0.199199    0.263145    1.866434
H     2.656581    0.655989   -0.347324   -0.006908    0.012787    0.027840
H    -1.547877    1.210134    0.024713   -0.042319   -0.071551   -0.355594
H    -2.245330   -2.079172    0.496897    0.038825    0.087583    0.416638
13
* Frequency(14)  631.7881
C     1.648441    0.273505   -0.193136   -0.007458    0.002267   -0.004158
C     1.420842   -1.038896    0.033308   -0.001031   -0.003035   -0.032018
N     0.139065   -1.517362    0.263929   -0.014028   -0.032599   -0.184540
C    -0.924351   -0.708072    0.208303   -0.001720   -0.014427   -0.050387
N    -0.735029    0.587644   -0.050083    0.011291    0.009164    0.099207
C     0.536017    1.212651   -0.258846    0.001268    0.013183    0.081514
O    -2.144564   -1.111539    0.385225   -0.006144    0.004753   -0.031097
O     0.589497    2.411987   -0.419550    0.001929   -0.003241   -0.024697
H     2.200789   -1.803474    0.022585    0.022681    0.033649    0.176179
H    -0.046959   -2.594651   -0.108845    0.199199    0.263145    1.866434
H     2.657209    0.654826   -0.349855   -0.006908    0.012787    0.027840
H    -1.544030    1.216639    0.057044   -0.042319   -0.071551   -0.355594
H    -2.248860   -2.087136    0.459016    0.038825    0.087583    0.416638
13
* Frequency(14)  631.7881
C     1.648911    0.273362   -0.192874   -0.007458    0.002267   -0.004158
C     1.420907   -1.038704    0.035326   -0.001031   -0.003035   -0.032018
N     0.139949   -1.515308    0.275558   -0.014028   -0.032599   -0.184540
C    -0.924243   -0.707163    0.211479   -0.001720   -0.014427   -0.050387
N    -0.735740    0.587067   -0.056334    0.011291    0.009164    0.099207
C     0.535938    1.211820   -0.263983    0.001268    0.013183    0.081514
O    -2.144177   -1.111838    0.387185   -0.006144    0.004753   -0.031097
O     0.589376    2.412192   -0.417993    0.001929   -0.003241   -0.024697
H     2.199360   -1.805594    0.011483    0.022681    0.033649    0.176179
H    -0.059512   -2.611234   -0.226463    0.199199    0.263145    1.866434
H     2.657644    0.654020   -0.351609   -0.006908    0.012787    0.027840
H    -1.541363    1.221148    0.079453   -0.042319   -0.071551   -0.355594
H    -2.251307   -2.092655    0.432760    0.038825    0.087583    0.416638
13
* Frequency(14)  631.7881
C     1.649122    0.273298   -0.192757   -0.007458    0.002267   -0.004158
C     1.420936   -1.038618    0.036232   -0.001031   -0.003035   -0.032018
N     0.140346   -1.514386    0.280777   -0.014028   -0.032599   -0.184540
C    -0.924194   -0.706755    0.212904   -0.001720   -0.014427   -0.050387
N    -0.736060    0.586808   -0.059140    0.011291    0.009164    0.099207
C     0.535902    1.211447   -0.266289    0.001268    0.013183    0.081514
O    -2.144003   -1.111973    0.388064   -0.006144    0.004753   -0.031097
O     0.589321    2.412283   -0.417295    0.001929   -0.003241   -0.024697
H     2.198718   -1.806546    0.006500    0.022681    0.033649    0.176179
H    -0.065146   -2.618677   -0.279253    0.199199    0.263145    1.866434
H     2.657839    0.653659   -0.352397   -0.006908    0.012787    0.027840
H    -1.540166    1.223172    0.089510   -0.042319   -0.071551   -0.355594
H    -2.252405   -2.095132    0.420976    0.038825    0.087583    0.416638
13
* Frequency(14)  631.7881
C     1.649051    0.273320   -0.192796   -0.007458    0.002267   -0.004158
C     1.420927   -1.038647    0.035927   -0.001031   -0.003035   -0.032018
N     0.140213   -1.514696    0.279022   -0.014028   -0.032599   -0.184540
C    -0.924210   -0.706892    0.212424   -0.001720   -0.014427   -0.050387
N    -0.735952    0.586895   -0.058196    0.011291    0.009164    0.099207
C     0.535914    1.211573   -0.265513    0.001268    0.013183    0.081514
O    -2.144061   -1.111927    0.387768   -0.006144    0.004753   -0.031097
O     0.589339    2.412252   -0.417530    0.001929   -0.003241   -0.024697
H     2.198934   -1.806226    0.008176    0.022681    0.033649    0.176179
H    -0.063251   -2.616173   -0.261495    0.199199    0.263145    1.866434
H     2.657774    0.653780   -0.352132   -0.006908    0.012787    0.027840
H    -1.540569    1.222491    0.086127   -0.042319   -0.071551   -0.355594
H    -2.252036   -2.094299    0.424940    0.038825    0.087583    0.416638
13
* Frequency(14)  631.7881
C     1.648705    0.273425   -0.192989   -0.007458    0.002267   -0.004158
C     1.420879   -1.038788    0.034445   -0.001031   -0.003035   -0.032018
N     0.139563   -1.516205    0.270481   -0.014028   -0.032599   -0.184540
C    -0.924290   -0.707560    0.210092   -0.001720   -0.014427   -0.050387
N    -0.735430    0.587319   -0.053605    0.011291    0.009164    0.099207
C     0.535972    1.212183   -0.261740    0.001268    0.013183    0.081514
O    -2.144346   -1.111707    0.386329   -0.006144    0.004753   -0.031097
O     0.589429    2.412102   -0.418673    0.001929   -0.003241   -0.024697
H     2.199984   -1.804668    0.016330    0.022681    0.033649    0.176179
H    -0.054032   -2.603994   -0.175113    0.199199    0.263145    1.866434
H     2.657454    0.654372   -0.350843   -0.006908    0.012787    0.027840
H    -1.542527    1.219180    0.069670   -0.042319   -0.071551   -0.355594
H    -2.250239   -2.090245    0.444223    0.038825    0.087583    0.416638
13
* Frequency(14)  631.7881
C     1.648123    0.273601   -0.193313   -0.007458    0.002267   -0.004158
C     1.420798   -1.039025    0.031947   -0.001031   -0.003035   -0.032018
N     0.138469   -1.518749    0.256080   -0.014028   -0.032599   -0.184540
C    -0.924424   -0.708686    0.206161   -0.001720   -0.014427   -0.050387
N    -0.734548    0.588034   -0.045863    0.011291    0.009164    0.099207
C     0.536071    1.213212   -0.255380    0.001268    0.013183    0.081514
O    -2.144825   -1.111336    0.383902   -0.006144    0.004753   -0.031097
O     0.589579    2.411850   -0.420600    0.001929   -0.003241   -0.024697
H     2.201753   -1.802043    0.030078    0.022681    0.033649    0.176179
H    -0.038487   -2.583460   -0.029468    0.199199    0.263145    1.866434
H     2.656915    0.655370   -0.348671   -0.006908    0.012787    0.027840
H    -1.545830    1.213597    0.041921   -0.042319   -0.071551   -0.355594
H    -2.247209   -2.083411    0.476735    0.038825    0.087583    0.416638
13
* Frequency(14)  631.7881
C     1.647368    0.273831   -0.193735   -0.007458    0.002267   -0.004158
C     1.420694   -1.039332    0.028702   -0.001031   -0.003035   -0.032018
N     0.137047   -1.522052    0.237381   -0.014028   -0.032599   -0.184540
C    -0.924599   -0.710148    0.201055   -0.001720   -0.014427   -0.050387
N    -0.733404    0.588963   -0.035811    0.011291    0.009164    0.099207
C     0.536200    1.214547   -0.247120    0.001268    0.013183    0.081514
O    -2.145448   -1.110855    0.380751   -0.006144    0.004753   -0.031097
O     0.589775    2.411521   -0.423103    0.001929   -0.003241   -0.024697
H     2.204052   -1.798633    0.047930    0.022681    0.033649    0.176179
H    -0.018303   -2.556796    0.159657    0.199199    0.263145    1.866434
H     2.656215    0.656665   -0.345850   -0.006908    0.012787    0.027840
H    -1.550118    1.206346    0.005889   -0.042319   -0.071551   -0.355594
H    -2.243275   -2.074536    0.518953    0.038825    0.087583    0.416638
13
* Frequency(14)  631.7881
C     1.646520    0.274089   -0.194207   -0.007458    0.002267   -0.004158
C     1.420577   -1.039677    0.025063   -0.001031   -0.003035   -0.032018
N     0.135453   -1.525757    0.216409   -0.014028   -0.032599   -0.184540
C    -0.924794   -0.711788    0.195329   -0.001720   -0.014427   -0.050387
N    -0.732121    0.590004   -0.024536    0.011291    0.009164    0.099207
C     0.536344    1.216046   -0.237856    0.001268    0.013183    0.081514
O    -2.146146   -1.110315    0.377217   -0.006144    0.004753   -0.031097
O     0.589994    2.411153   -0.425909    0.001929   -0.003241   -0.024697
H     2.206629   -1.794809    0.067952    0.022681    0.033649    0.176179
H     0.004335   -2.526891    0.371768    0.199199    0.263145    1.866434
H     2.655430    0.658119   -0.342686   -0.006908    0.012787    0.027840
H    -1.554927    1.198215   -0.034522   -0.042319   -0.071551   -0.355594
H    -2.238862   -2.064583    0.566301    0.038825    0.087583    0.416638
