13
* (null), Energy   -1000.0000000
C     1.393781    0.533776   -0.062691    0.255714   -0.352136    0.026973
C     1.168148   -0.779758    0.160441    0.764121   -0.595846    0.017456
N    -0.116197   -1.262094    0.357179    0.249064   -0.012977   -0.022099
C    -1.173993   -0.446979    0.334824   -0.151872   -0.082948    0.026724
N    -0.982141    0.854104    0.116669   -0.401292    0.152513    0.013793
C     0.285100    1.476626   -0.101181   -0.010125    0.395585   -0.055120
O    -2.392774   -0.849779    0.515859   -0.442933   -0.077109    0.055115
O     0.338858    2.672655   -0.290012   -0.037380    0.503239   -0.075007
H     1.953348   -1.535224    0.201378    0.596468   -0.834185    0.079171
H    -0.254993   -2.258813    0.525028   -0.033994    0.025965   -0.003958
H     2.401547    0.916834   -0.219517    0.219614   -0.189478    0.014709
H    -1.805505    1.460126    0.102516   -0.591794   -0.069851    0.072020
H    -2.476740   -1.809302    0.672136   -0.673135   -0.064418    0.078157
13
* Frequency(18)  779.4407
C     1.422842    0.493757   -0.059625    0.255714   -0.352136    0.026973
C     1.254987   -0.847473    0.162425    0.764121   -0.595846    0.017456
N    -0.087892   -1.263569    0.354668    0.249064   -0.012977   -0.022099
C    -1.191252   -0.456406    0.337861   -0.151872   -0.082948    0.026724
N    -1.027746    0.871436    0.118236   -0.401292    0.152513    0.013793
C     0.283949    1.521582   -0.107446   -0.010125    0.395585   -0.055120
O    -2.443111   -0.858542    0.522123   -0.442933   -0.077109    0.055115
O     0.334610    2.729845   -0.298536   -0.037380    0.503239   -0.075007
H     2.021134   -1.630025    0.210375    0.596468   -0.834185    0.079171
H    -0.258857   -2.255863    0.524578   -0.033994    0.025965   -0.003958
H     2.426505    0.895300   -0.217845    0.219614   -0.189478    0.014709
H    -1.872759    1.452188    0.110700   -0.591794   -0.069851    0.072020
H    -2.553238   -1.816622    0.681018   -0.673135   -0.064418    0.078157
13
* Frequency(18)  779.4407
C     1.448753    0.458076   -0.056892    0.255714   -0.352136    0.026973
C     1.332415   -0.907850    0.164194    0.764121   -0.595846    0.017456
N    -0.062654   -1.264884    0.352429    0.249064   -0.012977   -0.022099
C    -1.206641   -0.464811    0.340569   -0.151872   -0.082948    0.026724
N    -1.068408    0.886890    0.119634   -0.401292    0.152513    0.013793
C     0.282923    1.561666   -0.113031   -0.010125    0.395585   -0.055120
O    -2.487993   -0.866356    0.527707   -0.442933   -0.077109    0.055115
O     0.330822    2.780838   -0.306137   -0.037380    0.503239   -0.075007
H     2.081574   -1.714552    0.218398    0.596468   -0.834185    0.079171
H    -0.262301   -2.253232    0.524177   -0.033994    0.025965   -0.003958
H     2.448758    0.876101   -0.216354    0.219614   -0.189478    0.014709
H    -1.932726    1.445110    0.117998   -0.591794   -0.069851    0.072020
H    -2.621447   -1.823150    0.688938   -0.673135   -0.064418    0.078157
13
* Frequency(18)  779.4407
C     1.468708    0.430597   -0.054787    0.255714   -0.352136    0.026973
C     1.392042   -0.954346    0.165556    0.764121   -0.595846    0.017456
N    -0.043219   -1.265896    0.350704    0.249064   -0.012977   -0.022099
C    -1.218492   -0.471283    0.342655   -0.151872   -0.082948    0.026724
N    -1.099723    0.898791    0.120710   -0.401292    0.152513    0.013793
C     0.282133    1.592535   -0.117332   -0.010125    0.395585   -0.055120
O    -2.522557   -0.872373    0.532008   -0.442933   -0.077109    0.055115
O     0.327905    2.820108   -0.311990   -0.037380    0.503239   -0.075007
H     2.128118   -1.779647    0.224576    0.596468   -0.834185    0.079171
H    -0.264954   -2.251205    0.523869   -0.033994    0.025965   -0.003958
H     2.465895    0.861315   -0.215207    0.219614   -0.189478    0.014709
H    -1.978906    1.439659    0.123618   -0.591794   -0.069851    0.072020
H    -2.673974   -1.828177    0.695037   -0.673135   -0.064418    0.078157
13
* Frequency(18)  779.4407
C     1.480543    0.414300   -0.053539    0.255714   -0.352136    0.026973
C     1.427407   -0.981923    0.166364    0.764121   -0.595846    0.017456
N    -0.031692   -1.266497    0.349681    0.249064   -0.012977   -0.022099
C    -1.225521   -0.475122    0.343891   -0.151872   -0.082948    0.026724
N    -1.118295    0.905850    0.121349   -0.401292    0.152513    0.013793
C     0.281665    1.610844   -0.119883   -0.010125    0.395585   -0.055120
O    -2.543057   -0.875942    0.534559   -0.442933   -0.077109    0.055115
O     0.326175    2.843399   -0.315461   -0.037380    0.503239   -0.075007
H     2.155724   -1.818255    0.228240    0.596468   -0.834185    0.079171
H    -0.266527   -2.250004    0.523685   -0.033994    0.025965   -0.003958
H     2.476059    0.852546   -0.214526    0.219614   -0.189478    0.014709
H    -2.006295    1.436426    0.126951   -0.591794   -0.069851    0.072020
H    -2.705128   -1.831158    0.698654   -0.673135   -0.064418    0.078157
13
* Frequency(18)  779.4407
C     1.482976    0.410949   -0.053282    0.255714   -0.352136    0.026973
C     1.434677   -0.987592    0.166530    0.764121   -0.595846    0.017456
N    -0.029322   -1.266620    0.349471    0.249064   -0.012977   -0.022099
C    -1.226966   -0.475912    0.344146   -0.151872   -0.082948    0.026724
N    -1.122113    0.907301    0.121480   -0.401292    0.152513    0.013793
C     0.281568    1.614608   -0.120408   -0.010125    0.395585   -0.055120
O    -2.547271   -0.876675    0.535083   -0.442933   -0.077109    0.055115
O     0.325820    2.848187   -0.316175   -0.037380    0.503239   -0.075007
H     2.161399   -1.826192    0.228993    0.596468   -0.834185    0.079171
H    -0.266851   -2.249757    0.523648   -0.033994    0.025965   -0.003958
H     2.478149    0.850743   -0.214386    0.219614   -0.189478    0.014709
H    -2.011926    1.435762    0.127637   -0.591794   -0.069851    0.072020
H    -2.711532   -1.831771    0.699398   -0.673135   -0.064418    0.078157
13
* Frequency(18)  779.4407
C     1.475743    0.420909   -0.054045    0.255714   -0.352136    0.026973
C     1.413065   -0.970740    0.166036    0.764121   -0.595846    0.017456
N    -0.036367   -1.266253    0.350096    0.249064   -0.012977   -0.022099
C    -1.222671   -0.473565    0.343390   -0.151872   -0.082948    0.026724
N    -1.110763    0.902987    0.121090   -0.401292    0.152513    0.013793
C     0.281855    1.603419   -0.118849   -0.010125    0.395585   -0.055120
O    -2.534743   -0.874494    0.533524   -0.442933   -0.077109    0.055115
O     0.326877    2.833953   -0.314053   -0.037380    0.503239   -0.075007
H     2.144529   -1.802597    0.226754    0.596468   -0.834185    0.079171
H    -0.265889   -2.250491    0.523760   -0.033994    0.025965   -0.003958
H     2.471937    0.856102   -0.214802    0.219614   -0.189478    0.014709
H    -1.995187    1.437738    0.125600   -0.591794   -0.069851    0.072020
H    -2.692494   -1.829949    0.697187   -0.673135   -0.064418    0.078157
13
* Frequency(18)  779.4407
C     1.459629    0.443100   -0.055745    0.255714   -0.352136    0.026973
C     1.364912   -0.933191    0.164936    0.764121   -0.595846    0.017456
N    -0.052062   -1.265435    0.351489    0.249064   -0.012977   -0.022099
C    -1.213100   -0.468338    0.341706   -0.151872   -0.082948    0.026724
N    -1.085475    0.893376    0.120221   -0.401292    0.152513    0.013793
C     0.282493    1.578490   -0.115375   -0.010125    0.395585   -0.055120
O    -2.506831   -0.869635    0.530051   -0.442933   -0.077109    0.055115
O     0.329233    2.802240   -0.309326   -0.037380    0.503239   -0.075007
H     2.106941   -1.750029    0.221765    0.596468   -0.834185    0.079171
H    -0.263747   -2.252127    0.524009   -0.033994    0.025965   -0.003958
H     2.458098    0.868042   -0.215729    0.219614   -0.189478    0.014709
H    -1.957894    1.442139    0.121061   -0.591794   -0.069851    0.072020
H    -2.650074   -1.825890    0.692262   -0.673135   -0.064418    0.078157
13
* Frequency(18)  779.4407
C     1.436379    0.475116   -0.058197    0.255714   -0.352136    0.026973
C     1.295437   -0.879015    0.163349    0.764121   -0.595846    0.017456
N    -0.074707   -1.264256    0.353498    0.249064   -0.012977   -0.022099
C    -1.199292   -0.460797    0.339276   -0.151872   -0.082948    0.026724
N    -1.048989    0.879510    0.118967   -0.401292    0.152513    0.013793
C     0.283413    1.542523   -0.110363   -0.010125    0.395585   -0.055120
O    -2.466559   -0.862624    0.525040   -0.442933   -0.077109    0.055115
O     0.332631    2.756485   -0.302507   -0.037380    0.503239   -0.075007
H     2.052709   -1.674184    0.214566    0.596468   -0.834185    0.079171
H    -0.260656   -2.254488    0.524369   -0.033994    0.025965   -0.003958
H     2.438130    0.885270   -0.217066    0.219614   -0.189478    0.014709
H    -1.904087    1.448490    0.114513   -0.591794   -0.069851    0.072020
H    -2.588872   -1.820032    0.685156   -0.673135   -0.064418    0.078157
13
* Frequency(18)  779.4407
C     1.408513    0.513490   -0.061137    0.255714   -0.352136    0.026973
C     1.212168   -0.814084    0.161447    0.764121   -0.595846    0.017456
N    -0.101849   -1.262841    0.355906    0.249064   -0.012977   -0.022099
C    -1.182742   -0.451757    0.336364   -0.151872   -0.082948    0.026724
N    -1.005259    0.862890    0.117463   -0.401292    0.152513    0.013793
C     0.284517    1.499415   -0.104357   -0.010125    0.395585   -0.055120
O    -2.418291   -0.854221    0.519034   -0.442933   -0.077109    0.055115
O     0.336705    2.701645   -0.294333   -0.037380    0.503239   -0.075007
H     1.987710   -1.583280    0.205939    0.596468   -0.834185    0.079171
H    -0.256952   -2.257318    0.524800   -0.033994    0.025965   -0.003958
H     2.414198    0.905918   -0.218669    0.219614   -0.189478    0.014709
H    -1.839597    1.456102    0.106665   -0.591794   -0.069851    0.072020
H    -2.515518   -1.813013    0.676639   -0.673135   -0.064418    0.078157
13
* Frequency(18)  779.4407
C     1.379050    0.554062   -0.064244    0.255714   -0.352136    0.026973
C     1.124129   -0.745433    0.159435    0.764121   -0.595846    0.017456
N    -0.130545   -1.261346    0.358453    0.249064   -0.012977   -0.022099
C    -1.165244   -0.442201    0.333285   -0.151872   -0.082948    0.026724
N    -0.959023    0.845318    0.115874   -0.401292    0.152513    0.013793
C     0.285683    1.453837   -0.098006   -0.010125    0.395585   -0.055120
O    -2.367258   -0.845337    0.512684   -0.442933   -0.077109    0.055115
O     0.341012    2.643664   -0.285691   -0.037380    0.503239   -0.075007
H     1.918987   -1.487168    0.196817    0.596468   -0.834185    0.079171
H    -0.253035   -2.260309    0.525256   -0.033994    0.025965   -0.003958
H     2.388895    0.927749   -0.220364    0.219614   -0.189478    0.014709
H    -1.771413    1.464150    0.098367   -0.591794   -0.069851    0.072020
H    -2.437962   -1.805591    0.667634   -0.673135   -0.064418    0.078157
13
* Frequency(18)  779.4407
C     1.351184    0.592435   -0.067184    0.255714   -0.352136    0.026973
C     1.040860   -0.680501    0.157533    0.764121   -0.595846    0.017456
N    -0.157686   -1.259932    0.360861    0.249064   -0.012977   -0.022099
C    -1.148694   -0.433161    0.330372   -0.151872   -0.082948    0.026724
N    -0.915293    0.828698    0.114371   -0.401292    0.152513    0.013793
C     0.286787    1.410728   -0.091999   -0.010125    0.395585   -0.055120
O    -2.318990   -0.836934    0.506678   -0.442933   -0.077109    0.055115
O     0.345085    2.588824   -0.277517   -0.037380    0.503239   -0.075007
H     1.853988   -1.396264    0.188189    0.596468   -0.834185    0.079171
H    -0.249330   -2.263139    0.525687   -0.033994    0.025965   -0.003958
H     2.364963    0.948397   -0.221967    0.219614   -0.189478    0.014709
H    -1.706923    1.471762    0.090519   -0.591794   -0.069851    0.072020
H    -2.364608   -1.798571    0.659117   -0.673135   -0.064418    0.078157
13
* Frequency(18)  779.4407
C     1.327934    0.624452   -0.069636    0.255714   -0.352136    0.026973
C     0.971385   -0.626326    0.155946    0.764121   -0.595846    0.017456
N    -0.180332   -1.258752    0.362870    0.249064   -0.012977   -0.022099
C    -1.134885   -0.425620    0.327943   -0.151872   -0.082948    0.026724
N    -0.878807    0.814831    0.113117   -0.401292    0.152513    0.013793
C     0.287707    1.374761   -0.086988   -0.010125    0.395585   -0.055120
O    -2.278718   -0.829924    0.501667   -0.442933   -0.077109    0.055115
O     0.348484    2.543069   -0.270698   -0.037380    0.503239   -0.075007
H     1.799756   -1.320418    0.180991    0.596468   -0.834185    0.079171
H    -0.246240   -2.265499    0.526047   -0.033994    0.025965   -0.003958
H     2.344995    0.965625   -0.223304    0.219614   -0.189478    0.014709
H    -1.653116    1.478113    0.083970   -0.591794   -0.069851    0.072020
H    -2.303405   -1.792714    0.652010   -0.673135   -0.064418    0.078157
13
* Frequency(18)  779.4407
C     1.311820    0.646643   -0.071336    0.255714   -0.352136    0.026973
C     0.923232   -0.588777    0.154846    0.764121   -0.595846    0.017456
N    -0.196027   -1.257935    0.364263    0.249064   -0.012977   -0.022099
C    -1.125315   -0.420393    0.326259   -0.151872   -0.082948    0.026724
N    -0.853519    0.805220    0.112248   -0.401292    0.152513    0.013793
C     0.288345    1.349832   -0.083514   -0.010125    0.395585   -0.055120
O    -2.250805   -0.825064    0.498194   -0.442933   -0.077109    0.055115
O     0.350839    2.511356   -0.265971   -0.037380    0.503239   -0.075007
H     1.762168   -1.267850    0.176002    0.596468   -0.834185    0.079171
H    -0.244097   -2.267136    0.526297   -0.033994    0.025965   -0.003958
H     2.331156    0.977565   -0.224231    0.219614   -0.189478    0.014709
H    -1.615823    1.482515    0.079432   -0.591794   -0.069851    0.072020
H    -2.260986   -1.788654    0.647085   -0.673135   -0.064418    0.078157
13
* Frequency(18)  779.4407
C     1.304587    0.656602   -0.072099    0.255714   -0.352136    0.026973
C     0.901620   -0.571925    0.154352    0.764121   -0.595846    0.017456
N    -0.203071   -1.257567    0.364888    0.249064   -0.012977   -0.022099
C    -1.121019   -0.418046    0.325503   -0.151872   -0.082948    0.026724
N    -0.842168    0.800906    0.111858   -0.401292    0.152513    0.013793
C     0.288632    1.338644   -0.081955   -0.010125    0.395585   -0.055120
O    -2.238277   -0.822884    0.496635   -0.442933   -0.077109    0.055115
O     0.351897    2.497123   -0.263849   -0.037380    0.503239   -0.075007
H     1.745298   -1.244256    0.173763    0.596468   -0.834185    0.079171
H    -0.243136   -2.267870    0.526409   -0.033994    0.025965   -0.003958
H     2.324944    0.982924   -0.224647    0.219614   -0.189478    0.014709
H    -1.599084    1.484491    0.077395   -0.591794   -0.069851    0.072020
H    -2.241947   -1.786832    0.644874   -0.673135   -0.064418    0.078157
13
* Frequency(18)  779.4407
C     1.307020    0.653252   -0.071842    0.255714   -0.352136    0.026973
C     0.908890   -0.577594    0.154518    0.764121   -0.595846    0.017456
N    -0.200702   -1.257691    0.364678    0.249064   -0.012977   -0.022099
C    -1.122464   -0.418836    0.325757   -0.151872   -0.082948    0.026724
N    -0.845986    0.802357    0.111989   -0.401292    0.152513    0.013793
C     0.288535    1.342408   -0.082480   -0.010125    0.395585   -0.055120
O    -2.242492   -0.823617    0.497159   -0.442933   -0.077109    0.055115
O     0.351541    2.501911   -0.264563   -0.037380    0.503239   -0.075007
H     1.750973   -1.252193    0.174516    0.596468   -0.834185    0.079171
H    -0.243459   -2.267623    0.526371   -0.033994    0.025965   -0.003958
H     2.327034    0.981121   -0.224507    0.219614   -0.189478    0.014709
H    -1.604715    1.483826    0.078080   -0.591794   -0.069851    0.072020
H    -2.248352   -1.787445    0.645618   -0.673135   -0.064418    0.078157
13
* Frequency(18)  779.4407
C     1.318855    0.636954   -0.070594    0.255714   -0.352136    0.026973
C     0.944255   -0.605171    0.155326    0.764121   -0.595846    0.017456
N    -0.189175   -1.258292    0.363655    0.249064   -0.012977   -0.022099
C    -1.129493   -0.422675    0.326994   -0.151872   -0.082948    0.026724
N    -0.864559    0.809416    0.112628   -0.401292    0.152513    0.013793
C     0.288067    1.360716   -0.085031   -0.010125    0.395585   -0.055120
O    -2.262991   -0.827186    0.499710   -0.442933   -0.077109    0.055115
O     0.349811    2.525201   -0.268034   -0.037380    0.503239   -0.075007
H     1.778578   -1.290801    0.178180    0.596468   -0.834185    0.079171
H    -0.245033   -2.266421    0.526188   -0.033994    0.025965   -0.003958
H     2.337198    0.972352   -0.223826    0.219614   -0.189478    0.014709
H    -1.632104    1.480593    0.081413   -0.591794   -0.069851    0.072020
H    -2.279506   -1.790426    0.649235   -0.673135   -0.064418    0.078157
13
* Frequency(18)  779.4407
C     1.338809    0.609476   -0.068489    0.255714   -0.352136    0.026973
C     1.003882   -0.651667    0.156688    0.764121   -0.595846    0.017456
N    -0.169739   -1.259304    0.361930    0.249064   -0.012977   -0.022099
C    -1.141344   -0.429147    0.329079   -0.151872   -0.082948    0.026724
N    -0.895873    0.821317    0.113704   -0.401292    0.152513    0.013793
C     0.287277    1.391585   -0.089332   -0.010125    0.395585   -0.055120
O    -2.297555   -0.833203    0.504011   -0.442933   -0.077109    0.055115
O     0.346894    2.564471   -0.273887   -0.037380    0.503239   -0.075007
H     1.825123   -1.355895    0.184358    0.596468   -0.834185    0.079171
H    -0.247685   -2.264395    0.525879   -0.033994    0.025965   -0.003958
H     2.354335    0.957566   -0.222679    0.219614   -0.189478    0.014709
H    -1.678284    1.475143    0.087033   -0.591794   -0.069851    0.072020
H    -2.332033   -1.795453    0.655334   -0.673135   -0.064418    0.078157
13
* Frequency(18)  779.4407
C     1.364721    0.573794   -0.065756    0.255714   -0.352136    0.026973
C     1.081310   -0.712044    0.158457    0.764121   -0.595846    0.017456
N    -0.144502   -1.260619    0.359691    0.249064   -0.012977   -0.022099
C    -1.156733   -0.437552    0.331787   -0.151872   -0.082948    0.026724
N    -0.936536    0.836771    0.115101   -0.401292    0.152513    0.013793
C     0.286251    1.431670   -0.094917   -0.010125    0.395585   -0.055120
O    -2.342437   -0.841016    0.509596   -0.442933   -0.077109    0.055115
O     0.343106    2.615464   -0.281488   -0.037380    0.503239   -0.075007
H     1.885563   -1.440423    0.192380    0.596468   -0.834185    0.079171
H    -0.251130   -2.261764    0.525478   -0.033994    0.025965   -0.003958
H     2.376589    0.938367   -0.221188    0.219614   -0.189478    0.014709
H    -1.738251    1.468065    0.094331   -0.591794   -0.069851    0.072020
H    -2.400242   -1.801981    0.663254   -0.673135   -0.064418    0.078157
13
* Frequency(18)  779.4407
C     1.393781    0.533776   -0.062691    0.255714   -0.352136    0.026973
C     1.168148   -0.779758    0.160441    0.764121   -0.595846    0.017456
N    -0.116197   -1.262094    0.357179    0.249064   -0.012977   -0.022099
C    -1.173993   -0.446979    0.334824   -0.151872   -0.082948    0.026724
N    -0.982141    0.854104    0.116669   -0.401292    0.152513    0.013793
C     0.285100    1.476626   -0.101181   -0.010125    0.395585   -0.055120
O    -2.392774   -0.849779    0.515859   -0.442933   -0.077109    0.055115
O     0.338858    2.672655   -0.290012   -0.037380    0.503239   -0.075007
H     1.953348   -1.535224    0.201378    0.596468   -0.834185    0.079171
H    -0.254993   -2.258813    0.525028   -0.033994    0.025965   -0.003958
H     2.401547    0.916834   -0.219517    0.219614   -0.189478    0.014709
H    -1.805505    1.460126    0.102516   -0.591794   -0.069851    0.072020
H    -2.476740   -1.809302    0.672136   -0.673135   -0.064418    0.078157
