13
* (null), Energy   -1000.0000000
C     1.393781    0.533776   -0.062691   -0.696600    0.024690    0.066984
C     1.168148   -0.779758    0.160441   -0.168247   -0.098407    0.025815
N    -0.116197   -1.262094    0.357179    0.077511   -0.608901    0.069701
C    -1.173993   -0.446979    0.334824    0.348815   -0.269419    0.000755
N    -0.982141    0.854104    0.116669   -0.027916   -0.074221    0.026492
C     0.285100    1.476626   -0.101181   -0.320057    0.380323   -0.020152
O    -2.392774   -0.849779    0.515859    0.238424    0.226747   -0.061874
O     0.338858    2.672655   -0.290012    0.419303    0.385506   -0.104235
H     1.953348   -1.535224    0.201378    0.293147    0.381761   -0.081560
H    -0.254993   -2.258813    0.525028    0.064187   -0.591090    0.269171
H     2.401547    0.916834   -0.219517   -0.689151   -0.006578    0.068663
H    -1.805505    1.460126    0.102516   -0.535162   -0.750009    0.147928
H    -2.476740   -1.809302    0.672136   -0.299077    0.297640    0.020952
13
* Frequency(11)  533.8735
C     1.314616    0.536582   -0.055078   -0.696600    0.024690    0.066984
C     1.149028   -0.790942    0.163375   -0.168247   -0.098407    0.025815
N    -0.107388   -1.331292    0.365101    0.077511   -0.608901    0.069701
C    -1.134352   -0.477597    0.334910    0.348815   -0.269419    0.000755
N    -0.985313    0.845669    0.119680   -0.027916   -0.074221    0.026492
C     0.248727    1.519847   -0.103472   -0.320057    0.380323   -0.020152
O    -2.365679   -0.824011    0.508827    0.238424    0.226747   -0.061874
O     0.386510    2.716465   -0.301858    0.419303    0.385506   -0.104235
H     1.986663   -1.491839    0.192109    0.293147    0.381761   -0.081560
H    -0.247699   -2.325988    0.555618    0.064187   -0.591090    0.269171
H     2.323228    0.916086   -0.211713   -0.689151   -0.006578    0.068663
H    -1.866323    1.374892    0.119327   -0.535162   -0.750009    0.147928
H    -2.510729   -1.775476    0.674517   -0.299077    0.297640    0.020952
13
* Frequency(11)  533.8735
C     1.244030    0.539083   -0.048291   -0.696600    0.024690    0.066984
C     1.131980   -0.800913    0.165991   -0.168247   -0.098407    0.025815
N    -0.099534   -1.392992    0.372164    0.077511   -0.608901    0.069701
C    -1.099007   -0.504897    0.334986    0.348815   -0.269419    0.000755
N    -0.988142    0.838148    0.122364   -0.027916   -0.074221    0.026492
C     0.216296    1.558385   -0.105514   -0.320057    0.380323   -0.020152
O    -2.341519   -0.801034    0.502558    0.238424    0.226747   -0.061874
O     0.428998    2.755529   -0.312420    0.419303    0.385506   -0.104235
H     2.016367   -1.453155    0.183845    0.293147    0.381761   -0.081560
H    -0.241195   -2.385883    0.582893    0.064187   -0.591090    0.269171
H     2.253397    0.915419   -0.204756   -0.689151   -0.006578    0.068663
H    -1.920551    1.298894    0.134317   -0.535162   -0.750009    0.147928
H    -2.541034   -1.745317    0.676640   -0.299077    0.297640    0.020952
13
* Frequency(11)  533.8735
C     1.189672    0.541010   -0.043063   -0.696600    0.024690    0.066984
C     1.118851   -0.808592    0.168005   -0.168247   -0.098407    0.025815
N    -0.093485   -1.440507    0.377603    0.077511   -0.608901    0.069701
C    -1.071787   -0.525921    0.335045    0.348815   -0.269419    0.000755
N    -0.990321    0.832356    0.124431   -0.027916   -0.074221    0.026492
C     0.191321    1.588064   -0.107086   -0.320057    0.380323   -0.020152
O    -2.322914   -0.783341    0.497730    0.238424    0.226747   -0.061874
O     0.461718    2.785611   -0.320554    0.419303    0.385506   -0.104235
H     2.039243   -1.423365    0.177480    0.293147    0.381761   -0.081560
H    -0.236186   -2.432008    0.603898    0.064187   -0.591090    0.269171
H     2.199620    0.914906   -0.199398   -0.689151   -0.006578    0.068663
H    -1.962312    1.240368    0.145860   -0.535162   -0.750009    0.147928
H    -2.564372   -1.722091    0.678275   -0.299077    0.297640    0.020952
13
* Frequency(11)  533.8735
C     1.157432    0.542153   -0.039963   -0.696600    0.024690    0.066984
C     1.111064   -0.813147    0.169200   -0.168247   -0.098407    0.025815
N    -0.089898   -1.468688    0.380828    0.077511   -0.608901    0.069701
C    -1.055643   -0.538390    0.335080    0.348815   -0.269419    0.000755
N    -0.991613    0.828921    0.125657   -0.027916   -0.074221    0.026492
C     0.176508    1.605666   -0.108019   -0.320057    0.380323   -0.020152
O    -2.311879   -0.772846    0.494866    0.238424    0.226747   -0.061874
O     0.481124    2.803453   -0.325378    0.419303    0.385506   -0.104235
H     2.052810   -1.405696    0.173705    0.293147    0.381761   -0.081560
H    -0.233215   -2.459364    0.616355    0.064187   -0.591090    0.269171
H     2.167724    0.914602   -0.196220   -0.689151   -0.006578    0.068663
H    -1.987080    1.205656    0.152706   -0.535162   -0.750009    0.147928
H    -2.578214   -1.708315    0.679245   -0.299077    0.297640    0.020952
13
* Frequency(11)  533.8735
C     1.150804    0.542388   -0.039326   -0.696600    0.024690    0.066984
C     1.109463   -0.814083    0.169445   -0.168247   -0.098407    0.025815
N    -0.089161   -1.474481    0.381492    0.077511   -0.608901    0.069701
C    -1.052325   -0.540953    0.335087    0.348815   -0.269419    0.000755
N    -0.991878    0.828215    0.125910   -0.027916   -0.074221    0.026492
C     0.173463    1.609284   -0.108211   -0.320057    0.380323   -0.020152
O    -2.309611   -0.770689    0.494277    0.238424    0.226747   -0.061874
O     0.485113    2.807121   -0.326370    0.419303    0.385506   -0.104235
H     2.055599   -1.402064    0.172929    0.293147    0.381761   -0.081560
H    -0.232604   -2.464988    0.618916    0.064187   -0.591090    0.269171
H     2.161167    0.914539   -0.195567   -0.689151   -0.006578    0.068663
H    -1.992172    1.198520    0.154114   -0.535162   -0.750009    0.147928
H    -2.581059   -1.705483    0.679444   -0.299077    0.297640    0.020952
13
* Frequency(11)  533.8735
C     1.170507    0.541689   -0.041221   -0.696600    0.024690    0.066984
C     1.114222   -0.811300    0.168715   -0.168247   -0.098407    0.025815
N    -0.091353   -1.457259    0.379520    0.077511   -0.608901    0.069701
C    -1.062190   -0.533333    0.335066    0.348815   -0.269419    0.000755
N    -0.991089    0.830314    0.125160   -0.027916   -0.074221    0.026492
C     0.182515    1.598527   -0.107641   -0.320057    0.380323   -0.020152
O    -2.316355   -0.777102    0.496027    0.238424    0.226747   -0.061874
O     0.473254    2.796217   -0.323421    0.419303    0.385506   -0.104235
H     2.047308   -1.412862    0.175236    0.293147    0.381761   -0.081560
H    -0.234420   -2.448270    0.611303    0.064187   -0.591090    0.269171
H     2.180659    0.914725   -0.197509   -0.689151   -0.006578    0.068663
H    -1.977035    1.219733    0.149930   -0.535162   -0.750009    0.147928
H    -2.572600   -1.713902    0.678852   -0.299077    0.297640    0.020952
13
* Frequency(11)  533.8735
C     1.214404    0.540133   -0.045442   -0.696600    0.024690    0.066984
C     1.124824   -0.805099    0.167089   -0.168247   -0.098407    0.025815
N    -0.096238   -1.418888    0.375128    0.077511   -0.608901    0.069701
C    -1.084172   -0.516355    0.335018    0.348815   -0.269419    0.000755
N    -0.989329    0.834991    0.123491   -0.027916   -0.074221    0.026492
C     0.202684    1.574560   -0.106371   -0.320057    0.380323   -0.020152
O    -2.331379   -0.791391    0.499926    0.238424    0.226747   -0.061874
O     0.446830    2.771924   -0.316853    0.419303    0.385506   -0.104235
H     2.028835   -1.436919    0.180376    0.293147    0.381761   -0.081560
H    -0.238465   -2.411021    0.594341    0.064187   -0.591090    0.269171
H     2.224088    0.915140   -0.201836   -0.689151   -0.006578    0.068663
H    -1.943311    1.266996    0.140608   -0.535162   -0.750009    0.147928
H    -2.553753   -1.732658    0.677531   -0.299077    0.297640    0.020952
13
* Frequency(11)  533.8735
C     1.277741    0.537889   -0.051532   -0.696600    0.024690    0.066984
C     1.140121   -0.796151    0.164741   -0.168247   -0.098407    0.025815
N    -0.103285   -1.363525    0.368790    0.077511   -0.608901    0.069701
C    -1.115887   -0.491859    0.334950    0.348815   -0.269419    0.000755
N    -0.986791    0.841740    0.121082   -0.027916   -0.074221    0.026492
C     0.231784    1.539981   -0.104538   -0.320057    0.380323   -0.020152
O    -2.353057   -0.812007    0.505552    0.238424    0.226747   -0.061874
O     0.408706    2.736873   -0.307376    0.419303    0.385506   -0.104235
H     2.002181   -1.471630    0.187791    0.293147    0.381761   -0.081560
H    -0.244301   -2.357278    0.569867    0.064187   -0.591090    0.269171
H     2.286747    0.915738   -0.208079   -0.689151   -0.006578    0.068663
H    -1.894653    1.335189    0.127158   -0.535162   -0.750009    0.147928
H    -2.526561   -1.759720    0.675626   -0.299077    0.297640    0.020952
13
* Frequency(11)  533.8735
C     1.353652    0.535198   -0.058832   -0.696600    0.024690    0.066984
C     1.158456   -0.785428    0.161928   -0.168247   -0.098407    0.025815
N    -0.111732   -1.297171    0.361195    0.077511   -0.608901    0.069701
C    -1.153898   -0.462500    0.334868    0.348815   -0.269419    0.000755
N    -0.983749    0.849828    0.118195   -0.027916   -0.074221    0.026492
C     0.266662    1.498535   -0.102342   -0.320057    0.380323   -0.020152
O    -2.379039   -0.836717    0.512295    0.238424    0.226747   -0.061874
O     0.363013    2.694863   -0.296017    0.419303    0.385506   -0.104235
H     1.970236   -1.513231    0.196679    0.293147    0.381761   -0.081560
H    -0.251296   -2.292865    0.540535    0.064187   -0.591090    0.269171
H     2.361846    0.916455   -0.215561   -0.689151   -0.006578    0.068663
H    -1.836335    1.416920    0.111038   -0.535162   -0.750009    0.147928
H    -2.493969   -1.792155    0.673343   -0.299077    0.297640    0.020952
13
* Frequency(11)  533.8735
C     1.433911    0.532353   -0.066549   -0.696600    0.024690    0.066984
C     1.177841   -0.774089    0.158954   -0.168247   -0.098407    0.025815
N    -0.120662   -1.227016    0.353164    0.077511   -0.608901    0.069701
C    -1.194087   -0.431458    0.334781    0.348815   -0.269419    0.000755
N    -0.980533    0.858379    0.115143   -0.027916   -0.074221    0.026492
C     0.303538    1.454716   -0.100020   -0.320057    0.380323   -0.020152
O    -2.406509   -0.862842    0.519423    0.238424    0.226747   -0.061874
O     0.314703    2.650446   -0.284007    0.419303    0.385506   -0.104235
H     1.936461   -1.557216    0.206076    0.293147    0.381761   -0.081560
H    -0.258691   -2.224762    0.509522    0.064187   -0.591090    0.269171
H     2.441247    0.917212   -0.223472   -0.689151   -0.006578    0.068663
H    -1.774675    1.503333    0.093994   -0.535162   -0.750009    0.147928
H    -2.459511   -1.826448    0.670929   -0.299077    0.297640    0.020952
13
* Frequency(11)  533.8735
C     1.509822    0.529663   -0.073849   -0.696600    0.024690    0.066984
C     1.196175   -0.763366    0.156141   -0.168247   -0.098407    0.025815
N    -0.129109   -1.160662    0.345568    0.077511   -0.608901    0.069701
C    -1.232099   -0.402099    0.334698    0.348815   -0.269419    0.000755
N    -0.977491    0.866468    0.112256   -0.027916   -0.074221    0.026492
C     0.338416    1.413271   -0.097824   -0.320057    0.380323   -0.020152
O    -2.432491   -0.887551    0.526166    0.238424    0.226747   -0.061874
O     0.269010    2.608436   -0.272648    0.419303    0.385506   -0.104235
H     1.904515   -1.598818    0.214964    0.293147    0.381761   -0.081560
H    -0.265686   -2.160349    0.480189    0.064187   -0.591090    0.269171
H     2.516346    0.917929   -0.230955   -0.689151   -0.006578    0.068663
H    -1.716357    1.585064    0.077874   -0.535162   -0.750009    0.147928
H    -2.426919   -1.858883    0.668646   -0.299077    0.297640    0.020952
13
* Frequency(11)  533.8735
C     1.573158    0.527418   -0.079939   -0.696600    0.024690    0.066984
C     1.211472   -0.754418    0.153794   -0.168247   -0.098407    0.025815
N    -0.136156   -1.105300    0.339231    0.077511   -0.608901    0.069701
C    -1.263814   -0.377603    0.334630    0.348815   -0.269419    0.000755
N    -0.974952    0.873216    0.109847   -0.027916   -0.074221    0.026492
C     0.367516    1.378691   -0.095992   -0.320057    0.380323   -0.020152
O    -2.454169   -0.908168    0.531792    0.238424    0.226747   -0.061874
O     0.230886    2.573385   -0.263171    0.419303    0.385506   -0.104235
H     1.877862   -1.633529    0.222380    0.293147    0.381761   -0.081560
H    -0.271522   -2.106606    0.455716    0.064187   -0.591090    0.269171
H     2.579005    0.918527   -0.237197   -0.689151   -0.006578    0.068663
H    -1.667699    1.653256    0.064424   -0.535162   -0.750009    0.147928
H    -2.399726   -1.885945    0.666741   -0.299077    0.297640    0.020952
13
* Frequency(11)  533.8735
C     1.617056    0.525862   -0.084160   -0.696600    0.024690    0.066984
C     1.222075   -0.748217    0.152167   -0.168247   -0.098407    0.025815
N    -0.141041   -1.066929    0.334839    0.077511   -0.608901    0.069701
C    -1.285795   -0.360625    0.334582    0.348815   -0.269419    0.000755
N    -0.973193    0.877893    0.108178   -0.027916   -0.074221    0.026492
C     0.387685    1.354724   -0.094722   -0.320057    0.380323   -0.020152
O    -2.469194   -0.922457    0.535691    0.238424    0.226747   -0.061874
O     0.204463    2.549092   -0.256603    0.419303    0.385506   -0.104235
H     1.859389   -1.657586    0.227519    0.293147    0.381761   -0.081560
H    -0.275567   -2.069357    0.438753    0.064187   -0.591090    0.269171
H     2.622434    0.918942   -0.241524   -0.689151   -0.006578    0.068663
H    -1.633974    1.700520    0.055102   -0.535162   -0.750009    0.147928
H    -2.380879   -1.904701    0.665420   -0.299077    0.297640    0.020952
13
* Frequency(11)  533.8735
C     1.636759    0.525164   -0.086055   -0.696600    0.024690    0.066984
C     1.226834   -0.745434    0.151437   -0.168247   -0.098407    0.025815
N    -0.143233   -1.049707    0.332867    0.077511   -0.608901    0.069701
C    -1.295661   -0.353004    0.334561    0.348815   -0.269419    0.000755
N    -0.972404    0.879992    0.107428   -0.027916   -0.074221    0.026492
C     0.396737    1.343967   -0.094152   -0.320057    0.380323   -0.020152
O    -2.475938   -0.928870    0.537441    0.238424    0.226747   -0.061874
O     0.192603    2.538188   -0.253654    0.419303    0.385506   -0.104235
H     1.851097   -1.668384    0.229826    0.293147    0.381761   -0.081560
H    -0.277382   -2.052639    0.431140    0.064187   -0.591090    0.269171
H     2.641926    0.919128   -0.243466   -0.689151   -0.006578    0.068663
H    -1.618838    1.721733    0.050918   -0.535162   -0.750009    0.147928
H    -2.372420   -1.913120    0.664828   -0.299077    0.297640    0.020952
13
* Frequency(11)  533.8735
C     1.630131    0.525399   -0.085418   -0.696600    0.024690    0.066984
C     1.225233   -0.746370    0.151682   -0.168247   -0.098407    0.025815
N    -0.142495   -1.055500    0.333530    0.077511   -0.608901    0.069701
C    -1.292342   -0.355568    0.334568    0.348815   -0.269419    0.000755
N    -0.972669    0.879286    0.107680   -0.027916   -0.074221    0.026492
C     0.393692    1.347586   -0.094344   -0.320057    0.380323   -0.020152
O    -2.473669   -0.926712    0.536852    0.238424    0.226747   -0.061874
O     0.196593    2.541856   -0.254646    0.419303    0.385506   -0.104235
H     1.853886   -1.664752    0.229050    0.293147    0.381761   -0.081560
H    -0.276771   -2.058262    0.433701    0.064187   -0.591090    0.269171
H     2.635369    0.919065   -0.242813   -0.689151   -0.006578    0.068663
H    -1.623930    1.714597    0.052325   -0.535162   -0.750009    0.147928
H    -2.375266   -1.910288    0.665027   -0.299077    0.297640    0.020952
13
* Frequency(11)  533.8735
C     1.597891    0.526541   -0.082318   -0.696600    0.024690    0.066984
C     1.217446   -0.750925    0.152877   -0.168247   -0.098407    0.025815
N    -0.138908   -1.083681    0.336756    0.077511   -0.608901    0.069701
C    -1.276199   -0.368037    0.334603    0.348815   -0.269419    0.000755
N    -0.973961    0.875851    0.108906   -0.027916   -0.074221    0.026492
C     0.378879    1.365188   -0.095277   -0.320057    0.380323   -0.020152
O    -2.462634   -0.916218    0.533989    0.238424    0.226747   -0.061874
O     0.215999    2.559698   -0.259470    0.419303    0.385506   -0.104235
H     1.867454   -1.647083    0.225275    0.293147    0.381761   -0.081560
H    -0.273801   -2.085619    0.446159    0.064187   -0.591090    0.269171
H     2.603474    0.918761   -0.239635   -0.689151   -0.006578    0.068663
H    -1.648698    1.679885    0.059172   -0.535162   -0.750009    0.147928
H    -2.389108   -1.896513    0.665997   -0.299077    0.297640    0.020952
13
* Frequency(11)  533.8735
C     1.543533    0.528468   -0.077090   -0.696600    0.024690    0.066984
C     1.204317   -0.758604    0.154892   -0.168247   -0.098407    0.025815
N    -0.132860   -1.131196    0.342195    0.077511   -0.608901    0.069701
C    -1.248979   -0.389061    0.334662    0.348815   -0.269419    0.000755
N    -0.976140    0.870059    0.110974   -0.027916   -0.074221    0.026492
C     0.353904    1.394866   -0.096849   -0.320057    0.380323   -0.020152
O    -2.444029   -0.898524    0.529160    0.238424    0.226747   -0.061874
O     0.248719    2.589781   -0.267604    0.419303    0.385506   -0.104235
H     1.890329   -1.617293    0.218911    0.293147    0.381761   -0.081560
H    -0.268792   -2.131744    0.467163    0.064187   -0.591090    0.269171
H     2.549696    0.918248   -0.234277   -0.689151   -0.006578    0.068663
H    -1.690459    1.621359    0.070715   -0.535162   -0.750009    0.147928
H    -2.412446   -1.873287    0.667632   -0.299077    0.297640    0.020952
13
* Frequency(11)  533.8735
C     1.472946    0.530970   -0.070303   -0.696600    0.024690    0.066984
C     1.187269   -0.768575    0.157507   -0.168247   -0.098407    0.025815
N    -0.125005   -1.192895    0.349258    0.077511   -0.608901    0.069701
C    -1.213634   -0.416361    0.334738    0.348815   -0.269419    0.000755
N    -0.978968    0.862539    0.113658   -0.027916   -0.074221    0.026492
C     0.321473    1.433404   -0.098891   -0.320057    0.380323   -0.020152
O    -2.419870   -0.875548    0.522891    0.238424    0.226747   -0.061874
O     0.291207    2.628844   -0.278166    0.419303    0.385506   -0.104235
H     1.920034   -1.578609    0.210647    0.293147    0.381761   -0.081560
H    -0.262288   -2.191639    0.494438    0.064187   -0.591090    0.269171
H     2.479865    0.917581   -0.227320   -0.689151   -0.006578    0.068663
H    -1.744686    1.545361    0.085705   -0.535162   -0.750009    0.147928
H    -2.442751   -1.843127    0.669755   -0.299077    0.297640    0.020952
13
* Frequency(11)  533.8735
C     1.393781    0.533776   -0.062691   -0.696600    0.024690    0.066984
C     1.168148   -0.779758    0.160441   -0.168247   -0.098407    0.025815
N    -0.116197   -1.262094    0.357179    0.077511   -0.608901    0.069701
C    -1.173993   -0.446979    0.334824    0.348815   -0.269419    0.000755
N    -0.982141    0.854104    0.116669   -0.027916   -0.074221    0.026492
C     0.285100    1.476626   -0.101181   -0.320057    0.380323   -0.020152
O    -2.392774   -0.849779    0.515859    0.238424    0.226747   -0.061874
O     0.338858    2.672655   -0.290012    0.419303    0.385506   -0.104235
H     1.953348   -1.535224    0.201378    0.293147    0.381761   -0.081560
H    -0.254993   -2.258813    0.525028    0.064187   -0.591090    0.269171
H     2.401547    0.916834   -0.219517   -0.689151   -0.006578    0.068663
H    -1.805505    1.460126    0.102516   -0.535162   -0.750009    0.147928
H    -2.476740   -1.809302    0.672136   -0.299077    0.297640    0.020952
