12
* (null), Energy   -1000.0000000
C     1.326706    0.515754   -0.072626   -0.008636   -0.026338   -0.347966
C     1.114284   -0.816584    0.032594   -0.003084   -0.010480   -0.132732
N    -0.151041   -1.347120    0.103530    0.001265    0.003685    0.049097
C    -1.315628   -0.577682    0.076752    0.000084    0.000383    0.002774
N    -1.060936    0.779065   -0.032267   -0.003734   -0.010327   -0.138585
C     0.187706    1.435734   -0.112929    0.013931    0.041827    0.556673
O    -2.423226   -1.063291    0.142349    0.000020   -0.000225   -0.002729
O     0.244598    2.644464   -0.204665   -0.004216   -0.011854   -0.162703
H     1.931646   -1.540867    0.066907    0.023170    0.069889    0.937618
H    -0.299216   -2.347153    0.186398    0.000657    0.001435    0.020158
H    -1.882973    1.378347   -0.056429    0.010350    0.031354    0.415486
H     2.328081    0.939334   -0.129643    0.039378    0.117094    1.557642
12
* Frequency(18)  824.2613
C     1.325725    0.512760   -0.112170   -0.008636   -0.026338   -0.347966
C     1.113933   -0.817775    0.017510   -0.003084   -0.010480   -0.132732
N    -0.150898   -1.346701    0.109109    0.001265    0.003685    0.049097
C    -1.315619   -0.577638    0.077067    0.000084    0.000383    0.002774
N    -1.061360    0.777891   -0.048017   -0.003734   -0.010327   -0.138585
C     0.189289    1.440487   -0.049666    0.013931    0.041827    0.556673
O    -2.423224   -1.063316    0.142038    0.000020   -0.000225   -0.002729
O     0.244119    2.643117   -0.223155   -0.004216   -0.011854   -0.162703
H     1.934279   -1.532925    0.173463    0.023170    0.069889    0.937618
H    -0.299142   -2.346990    0.188689    0.000657    0.001435    0.020158
H    -1.881797    1.381910   -0.009211    0.010350    0.031354    0.415486
H     2.332556    0.952641    0.047375    0.039378    0.117094    1.557642
12
* Frequency(18)  824.2613
C     1.324849    0.510091   -0.147430   -0.008636   -0.026338   -0.347966
C     1.113620   -0.818837    0.004060   -0.003084   -0.010480   -0.132732
N    -0.150769   -1.346328    0.114084    0.001265    0.003685    0.049097
C    -1.315610   -0.577600    0.077348    0.000084    0.000383    0.002774
N    -1.061738    0.776845   -0.062059   -0.003734   -0.010327   -0.138585
C     0.190701    1.444726    0.006741    0.013931    0.041827    0.556673
O    -2.423222   -1.063339    0.141762    0.000020   -0.000225   -0.002729
O     0.243692    2.641916   -0.239642   -0.004216   -0.011854   -0.162703
H     1.936627   -1.525843    0.268471    0.023170    0.069889    0.937618
H    -0.299075   -2.346845    0.190731    0.000657    0.001435    0.020158
H    -1.880748    1.385087    0.032890    0.010350    0.031354    0.415486
H     2.336546    0.964506    0.205210    0.039378    0.117094    1.557642
12
* Frequency(18)  824.2613
C     1.324175    0.508036   -0.174583   -0.008636   -0.026338   -0.347966
C     1.113380   -0.819654   -0.006297   -0.003084   -0.010480   -0.132732
N    -0.150671   -1.346040    0.117916    0.001265    0.003685    0.049097
C    -1.315604   -0.577570    0.077565    0.000084    0.000383    0.002774
N    -1.062030    0.776039   -0.072874   -0.003734   -0.010327   -0.138585
C     0.191788    1.447990    0.050180    0.013931    0.041827    0.556673
O    -2.423220   -1.063357    0.141549    0.000020   -0.000225   -0.002729
O     0.243363    2.640991   -0.252338   -0.004216   -0.011854   -0.162703
H     1.938435   -1.520389    0.341637    0.023170    0.069889    0.937618
H    -0.299024   -2.346733    0.192304    0.000657    0.001435    0.020158
H    -1.879941    1.387534    0.065312    0.010350    0.031354    0.415486
H     2.339619    0.973643    0.326759    0.039378    0.117094    1.557642
12
* Frequency(18)  824.2613
C     1.323776    0.506817   -0.190687   -0.008636   -0.026338   -0.347966
C     1.113237   -0.820139   -0.012440   -0.003084   -0.010480   -0.132732
N    -0.150612   -1.345870    0.120188    0.001265    0.003685    0.049097
C    -1.315600   -0.577552    0.077693    0.000084    0.000383    0.002774
N    -1.062203    0.775561   -0.079287   -0.003734   -0.010327   -0.138585
C     0.192433    1.449926    0.075944    0.013931    0.041827    0.556673
O    -2.423219   -1.063367    0.141423    0.000020   -0.000225   -0.002729
O     0.243168    2.640442   -0.259869   -0.004216   -0.011854   -0.162703
H     1.939507   -1.517155    0.385032    0.023170    0.069889    0.937618
H    -0.298993   -2.346667    0.193237    0.000657    0.001435    0.020158
H    -1.879462    1.388985    0.084542    0.010350    0.031354    0.415486
H     2.341441    0.979063    0.398849    0.039378    0.117094    1.557642
12
* Frequency(18)  824.2613
C     1.323694    0.506567   -0.193998   -0.008636   -0.026338   -0.347966
C     1.113208   -0.820239   -0.013703   -0.003084   -0.010480   -0.132732
N    -0.150600   -1.345835    0.120655    0.001265    0.003685    0.049097
C    -1.315599   -0.577548    0.077720    0.000084    0.000383    0.002774
N    -1.062238    0.775462   -0.080606   -0.003734   -0.010327   -0.138585
C     0.192565    1.450323    0.081241    0.013931    0.041827    0.556673
O    -2.423219   -1.063369    0.141397    0.000020   -0.000225   -0.002729
O     0.243128    2.640330   -0.261417   -0.004216   -0.011854   -0.162703
H     1.939728   -1.516490    0.393953    0.023170    0.069889    0.937618
H    -0.298987   -2.346653    0.193429    0.000657    0.001435    0.020158
H    -1.879363    1.389283    0.088495    0.010350    0.031354    0.415486
H     2.341816    0.980177    0.413669    0.039378    0.117094    1.557642
12
* Frequency(18)  824.2613
C     1.323938    0.507312   -0.184156   -0.008636   -0.026338   -0.347966
C     1.113295   -0.819943   -0.009949   -0.003084   -0.010480   -0.132732
N    -0.150636   -1.345939    0.119266    0.001265    0.003685    0.049097
C    -1.315601   -0.577559    0.077641    0.000084    0.000383    0.002774
N    -1.062133    0.775755   -0.076686   -0.003734   -0.010327   -0.138585
C     0.192171    1.449140    0.065496    0.013931    0.041827    0.556673
O    -2.423220   -1.063363    0.141474    0.000020   -0.000225   -0.002729
O     0.243247    2.640665   -0.256815   -0.004216   -0.011854   -0.162703
H     1.939072   -1.518467    0.367433    0.023170    0.069889    0.937618
H    -0.299006   -2.346693    0.192859    0.000657    0.001435    0.020158
H    -1.879656    1.388396    0.076743    0.010350    0.031354    0.415486
H     2.340702    0.976865    0.369613    0.039378    0.117094    1.557642
12
* Frequency(18)  824.2613
C     1.324482    0.508971   -0.162228   -0.008636   -0.026338   -0.347966
C     1.113489   -0.819282   -0.001585   -0.003084   -0.010480   -0.132732
N    -0.150715   -1.346171    0.116172    0.001265    0.003685    0.049097
C    -1.315607   -0.577583    0.077466    0.000084    0.000383    0.002774
N    -1.061897    0.776405   -0.067953   -0.003734   -0.010327   -0.138585
C     0.191293    1.446505    0.030416    0.013931    0.041827    0.556673
O    -2.423221   -1.063349    0.141646    0.000020   -0.000225   -0.002729
O     0.243513    2.641412   -0.246562   -0.004216   -0.011854   -0.162703
H     1.937612   -1.522871    0.308347    0.023170    0.069889    0.937618
H    -0.299047   -2.346784    0.191588    0.000657    0.001435    0.020158
H    -1.880308    1.386420    0.050560    0.010350    0.031354    0.415486
H     2.338221    0.969486    0.271455    0.039378    0.117094    1.557642
12
* Frequency(18)  824.2613
C     1.325267    0.511366   -0.130591   -0.008636   -0.026338   -0.347966
C     1.113770   -0.818329    0.010484   -0.003084   -0.010480   -0.132732
N    -0.150831   -1.346506    0.111708    0.001265    0.003685    0.049097
C    -1.315614   -0.577618    0.077214    0.000084    0.000383    0.002774
N    -1.061558    0.777344   -0.055353   -0.003734   -0.010327   -0.138585
C     0.190027    1.442702   -0.020198    0.013931    0.041827    0.556673
O    -2.423223   -1.063328    0.141894    0.000020   -0.000225   -0.002729
O     0.243896    2.642490   -0.231768   -0.004216   -0.011854   -0.162703
H     1.935506   -1.529225    0.223097    0.023170    0.069889    0.937618
H    -0.299107   -2.346914    0.189756    0.000657    0.001435    0.020158
H    -1.881249    1.383570    0.012784    0.010350    0.031354    0.415486
H     2.334641    0.958840    0.129831    0.039378    0.117094    1.557642
12
* Frequency(18)  824.2613
C     1.326208    0.514236   -0.092672   -0.008636   -0.026338   -0.347966
C     1.114106   -0.817187    0.024948   -0.003084   -0.010480   -0.132732
N    -0.150968   -1.346908    0.106358    0.001265    0.003685    0.049097
C    -1.315623   -0.577660    0.076912    0.000084    0.000383    0.002774
N    -1.061151    0.778470   -0.040251   -0.003734   -0.010327   -0.138585
C     0.188509    1.438144   -0.080860    0.013931    0.041827    0.556673
O    -2.423225   -1.063304    0.142191    0.000020   -0.000225   -0.002729
O     0.244355    2.643781   -0.214038   -0.004216   -0.011854   -0.162703
H     1.932981   -1.536841    0.120922    0.023170    0.069889    0.937618
H    -0.299178   -2.347071    0.187559    0.000657    0.001435    0.020158
H    -1.882377    1.380153   -0.032493    0.010350    0.031354    0.415486
H     2.330349    0.946079   -0.039910    0.039378    0.117094    1.557642
12
* Frequency(18)  824.2613
C     1.327203    0.517271   -0.052580   -0.008636   -0.026338   -0.347966
C     1.114461   -0.815980    0.040241   -0.003084   -0.010480   -0.132732
N    -0.151114   -1.347332    0.100701    0.001265    0.003685    0.049097
C    -1.315633   -0.577704    0.076592    0.000084    0.000383    0.002774
N    -1.060721    0.779660   -0.024284   -0.003734   -0.010327   -0.138585
C     0.186904    1.433324   -0.144998    0.013931    0.041827    0.556673
O    -2.423227   -1.063278    0.142506    0.000020   -0.000225   -0.002729
O     0.244841    2.645147   -0.195292   -0.004216   -0.011854   -0.162703
H     1.930311   -1.544894    0.012893    0.023170    0.069889    0.937618
H    -0.299254   -2.347236    0.185236    0.000657    0.001435    0.020158
H    -1.883569    1.376541   -0.080364    0.010350    0.031354    0.415486
H     2.325812    0.932588   -0.219376    0.039378    0.117094    1.557642
12
* Frequency(18)  824.2613
C     1.328145    0.520141   -0.014661   -0.008636   -0.026338   -0.347966
C     1.114797   -0.814838    0.054705   -0.003084   -0.010480   -0.132732
N    -0.151252   -1.347734    0.095351    0.001265    0.003685    0.049097
C    -1.315642   -0.577746    0.076290    0.000084    0.000383    0.002774
N    -1.060314    0.780785   -0.009181   -0.003734   -0.010327   -0.138585
C     0.185385    1.428766   -0.205661    0.013931    0.041827    0.556673
O    -2.423229   -1.063253    0.142803    0.000020   -0.000225   -0.002729
O     0.245300    2.646439   -0.177562   -0.004216   -0.011854   -0.162703
H     1.927786   -1.552510   -0.089283    0.023170    0.069889    0.937618
H    -0.299326   -2.347392    0.183040    0.000657    0.001435    0.020158
H    -1.884697    1.373124   -0.125641    0.010350    0.031354    0.415486
H     2.321521    0.919828   -0.389118    0.039378    0.117094    1.557642
12
* Frequency(18)  824.2613
C     1.328930    0.522536    0.016976   -0.008636   -0.026338   -0.347966
C     1.115078   -0.813885    0.066773   -0.003084   -0.010480   -0.132732
N    -0.151367   -1.348069    0.090887    0.001265    0.003685    0.049097
C    -1.315650   -0.577780    0.076038    0.000084    0.000383    0.002774
N    -1.059974    0.781724    0.003419   -0.003734   -0.010327   -0.138585
C     0.184119    1.424963   -0.256274    0.013931    0.041827    0.556673
O    -2.423231   -1.063233    0.143051    0.000020   -0.000225   -0.002729
O     0.245684    2.647517   -0.162768   -0.004216   -0.011854   -0.162703
H     1.925680   -1.558864   -0.174533    0.023170    0.069889    0.937618
H    -0.299385   -2.347523    0.181207    0.000657    0.001435    0.020158
H    -1.885638    1.370273   -0.163418    0.010350    0.031354    0.415486
H     2.317941    0.909182   -0.530741    0.039378    0.117094    1.557642
12
* Frequency(18)  824.2613
C     1.329474    0.524196    0.038904   -0.008636   -0.026338   -0.347966
C     1.115272   -0.813225    0.075138   -0.003084   -0.010480   -0.132732
N    -0.151447   -1.348301    0.087793    0.001265    0.003685    0.049097
C    -1.315655   -0.577805    0.075863    0.000084    0.000383    0.002774
N    -1.059739    0.782375    0.012152   -0.003734   -0.010327   -0.138585
C     0.183241    1.422328   -0.291354    0.013931    0.041827    0.556673
O    -2.423233   -1.063219    0.143223    0.000020   -0.000225   -0.002729
O     0.245949    2.648264   -0.152515   -0.004216   -0.011854   -0.162703
H     1.924220   -1.563268   -0.233619    0.023170    0.069889    0.937618
H    -0.299427   -2.347613    0.179937    0.000657    0.001435    0.020158
H    -1.886290    1.368297   -0.189601    0.010350    0.031354    0.415486
H     2.315459    0.901803   -0.628900    0.039378    0.117094    1.557642
12
* Frequency(18)  824.2613
C     1.329718    0.524941    0.048746   -0.008636   -0.026338   -0.347966
C     1.115359   -0.812928    0.078892   -0.003084   -0.010480   -0.132732
N    -0.151483   -1.348405    0.086405    0.001265    0.003685    0.049097
C    -1.315657   -0.577815    0.075784    0.000084    0.000383    0.002774
N    -1.059633    0.782667    0.016072   -0.003734   -0.010327   -0.138585
C     0.182847    1.421145   -0.307099    0.013931    0.041827    0.556673
O    -2.423233   -1.063212    0.143300    0.000020   -0.000225   -0.002729
O     0.246069    2.648599   -0.147913   -0.004216   -0.011854   -0.162703
H     1.923564   -1.565245   -0.260138    0.023170    0.069889    0.937618
H    -0.299445   -2.347654    0.179367    0.000657    0.001435    0.020158
H    -1.886583    1.367410   -0.201352    0.010350    0.031354    0.415486
H     2.314345    0.898491   -0.672956    0.039378    0.117094    1.557642
12
* Frequency(18)  824.2613
C     1.329636    0.524690    0.045435   -0.008636   -0.026338   -0.347966
C     1.115330   -0.813028    0.077629   -0.003084   -0.010480   -0.132732
N    -0.151471   -1.348370    0.086872    0.001265    0.003685    0.049097
C    -1.315656   -0.577812    0.075811    0.000084    0.000383    0.002774
N    -1.059669    0.782569    0.014753   -0.003734   -0.010327   -0.138585
C     0.182979    1.421543   -0.301803    0.013931    0.041827    0.556673
O    -2.423233   -1.063215    0.143274    0.000020   -0.000225   -0.002729
O     0.246028    2.648486   -0.149461   -0.004216   -0.011854   -0.162703
H     1.923785   -1.564580   -0.251217    0.023170    0.069889    0.937618
H    -0.299439   -2.347640    0.179558    0.000657    0.001435    0.020158
H    -1.886485    1.367709   -0.197399    0.010350    0.031354    0.415486
H     2.314720    0.899605   -0.658136    0.039378    0.117094    1.557642
12
* Frequency(18)  824.2613
C     1.329236    0.523471    0.029331   -0.008636   -0.026338   -0.347966
C     1.115187   -0.813513    0.071486   -0.003084   -0.010480   -0.132732
N    -0.151412   -1.348200    0.089144    0.001265    0.003685    0.049097
C    -1.315653   -0.577794    0.075939    0.000084    0.000383    0.002774
N    -1.059842    0.782091    0.008339   -0.003734   -0.010327   -0.138585
C     0.183624    1.423478   -0.276039    0.013931    0.041827    0.556673
O    -2.423232   -1.063225    0.143148    0.000020   -0.000225   -0.002729
O     0.245833    2.647937   -0.156992   -0.004216   -0.011854   -0.162703
H     1.924857   -1.561345   -0.207823    0.023170    0.069889    0.937618
H    -0.299409   -2.347574    0.180491    0.000657    0.001435    0.020158
H    -1.886006    1.369160   -0.178170    0.010350    0.031354    0.415486
H     2.316543    0.905024   -0.586045    0.039378    0.117094    1.557642
12
* Frequency(18)  824.2613
C     1.328563    0.521416    0.002178   -0.008636   -0.026338   -0.347966
C     1.114947   -0.814331    0.061128   -0.003084   -0.010480   -0.132732
N    -0.151313   -1.347912    0.092975    0.001265    0.003685    0.049097
C    -1.315646   -0.577764    0.076156    0.000084    0.000383    0.002774
N    -1.060133    0.781285   -0.002475   -0.003734   -0.010327   -0.138585
C     0.184711    1.426742   -0.232600    0.013931    0.041827    0.556673
O    -2.423230   -1.063243    0.142935    0.000020   -0.000225   -0.002729
O     0.245504    2.647013   -0.169688   -0.004216   -0.011854   -0.162703
H     1.926665   -1.555892   -0.134657    0.023170    0.069889    0.937618
H    -0.299358   -2.347462    0.182064    0.000657    0.001435    0.020158
H    -1.885198    1.371606   -0.145748    0.010350    0.031354    0.415486
H     2.319615    0.914162   -0.464497    0.039378    0.117094    1.557642
12
* Frequency(18)  824.2613
C     1.327687    0.518747   -0.033081   -0.008636   -0.026338   -0.347966
C     1.114634   -0.815393    0.047679   -0.003084   -0.010480   -0.132732
N    -0.151185   -1.347539    0.097950    0.001265    0.003685    0.049097
C    -1.315638   -0.577725    0.076437    0.000084    0.000383    0.002774
N    -1.060511    0.780238   -0.016518   -0.003734   -0.010327   -0.138585
C     0.186123    1.430981   -0.176192    0.013931    0.041827    0.556673
O    -2.423228   -1.063265    0.142659    0.000020   -0.000225   -0.002729
O     0.245077    2.645811   -0.186175   -0.004216   -0.011854   -0.162703
H     1.929013   -1.548810   -0.039648    0.023170    0.069889    0.937618
H    -0.299291   -2.347316    0.184107    0.000657    0.001435    0.020158
H    -1.884149    1.374784   -0.103647    0.010350    0.031354    0.415486
H     2.323606    0.926027   -0.306661    0.039378    0.117094    1.557642
12
* Frequency(18)  824.2613
C     1.326706    0.515754   -0.072626   -0.008636   -0.026338   -0.347966
C     1.114284   -0.816584    0.032594   -0.003084   -0.010480   -0.132732
N    -0.151041   -1.347120    0.103530    0.001265    0.003685    0.049097
C    -1.315628   -0.577682    0.076752    0.000084    0.000383    0.002774
N    -1.060936    0.779065   -0.032267   -0.003734   -0.010327   -0.138585
C     0.187706    1.435734   -0.112929    0.013931    0.041827    0.556673
O    -2.423226   -1.063291    0.142349    0.000020   -0.000225   -0.002729
O     0.244598    2.644464   -0.204665   -0.004216   -0.011854   -0.162703
H     1.931646   -1.540867    0.066907    0.023170    0.069889    0.937618
H    -0.299216   -2.347153    0.186398    0.000657    0.001435    0.020158
H    -1.882973    1.378347   -0.056429    0.010350    0.031354    0.415486
H     2.328081    0.939334   -0.129643    0.039378    0.117094    1.557642
