12
* (null), Energy   -1000.0000000
C     1.629965    0.315610   -0.065301    0.002177   -0.000562    0.012032
C     1.417359   -1.016714    0.040627   -0.000954   -0.017372   -0.195734
N     0.152106   -1.547217    0.113051    0.010765    0.025774    0.353132
C    -1.012934   -0.778188    0.084369   -0.028386   -0.077990   -1.026318
N    -0.757957    0.578797   -0.024165    0.008151    0.031304    0.401919
C     0.490659    1.235340   -0.105671   -0.003243   -0.007949   -0.131580
O    -2.120393   -1.263598    0.148925    0.005242    0.023267    0.314250
O     0.547838    2.444022   -0.198224    0.000883    0.005619    0.040037
H     2.234675   -1.741152    0.074482    0.014079    0.026842    0.394932
H     0.004476   -2.547394    0.191756   -0.003151   -0.016955   -0.214670
H    -1.579890    1.178069   -0.048486   -0.033369   -0.090824   -1.210441
H     2.631499    0.738614   -0.122607    0.024684    0.067025    0.900947
12
* Frequency(17)  784.8195
C     1.630212    0.315546   -0.063933    0.002177   -0.000562    0.012032
C     1.417251   -1.018688    0.018383   -0.000954   -0.017372   -0.195734
N     0.153330   -1.544288    0.153183    0.010765    0.025774    0.353132
C    -1.016160   -0.787051   -0.032266   -0.028386   -0.077990   -1.026318
N    -0.757030    0.582354    0.021511    0.008151    0.031304    0.401919
C     0.490290    1.234436   -0.120624   -0.003243   -0.007949   -0.131580
O    -2.119797   -1.260954    0.184638    0.005242    0.023267    0.314250
O     0.547939    2.444661   -0.193674    0.000883    0.005619    0.040037
H     2.236275   -1.738101    0.119364    0.014079    0.026842    0.394932
H     0.004118   -2.549321    0.167360   -0.003151   -0.016955   -0.214670
H    -1.583682    1.167747   -0.186046   -0.033369   -0.090824   -1.210441
H     2.634304    0.746231   -0.020219    0.024684    0.067025    0.900947
12
* Frequency(17)  784.8195
C     1.630433    0.315489   -0.062714    0.002177   -0.000562    0.012032
C     1.417154   -1.020449   -0.001451   -0.000954   -0.017372   -0.195734
N     0.154420   -1.541676    0.188966    0.010765    0.025774    0.353132
C    -1.019037   -0.794954   -0.136263   -0.028386   -0.077990   -1.026318
N    -0.756204    0.585526    0.062238    0.008151    0.031304    0.401919
C     0.489962    1.233631   -0.133957   -0.003243   -0.007949   -0.131580
O    -2.119266   -1.258596    0.216481    0.005242    0.023267    0.314250
O     0.548028    2.445230   -0.189617    0.000883    0.005619    0.040037
H     2.237701   -1.735381    0.159382    0.014079    0.026842    0.394932
H     0.003799   -2.551039    0.145607   -0.003151   -0.016955   -0.214670
H    -1.587063    1.158544   -0.308699   -0.033369   -0.090824   -1.210441
H     2.636806    0.753023    0.071073    0.024684    0.067025    0.900947
12
* Frequency(17)  784.8195
C     1.630603    0.315445   -0.061775    0.002177   -0.000562    0.012032
C     1.417079   -1.021804   -0.016725   -0.000954   -0.017372   -0.195734
N     0.155260   -1.539665    0.216522    0.010765    0.025774    0.353132
C    -1.021252   -0.801039   -0.216350   -0.028386   -0.077990   -1.026318
N    -0.755568    0.587969    0.093601    0.008151    0.031304    0.401919
C     0.489709    1.233011   -0.144225   -0.003243   -0.007949   -0.131580
O    -2.118857   -1.256780    0.241003    0.005242    0.023267    0.314250
O     0.548097    2.445668   -0.186493    0.000883    0.005619    0.040037
H     2.238800   -1.733287    0.190200    0.014079    0.026842    0.394932
H     0.003553   -2.552362    0.128856   -0.003151   -0.016955   -0.214670
H    -1.589667    1.151456   -0.403155   -0.033369   -0.090824   -1.210441
H     2.638732    0.758253    0.141378    0.024684    0.067025    0.900947
12
* Frequency(17)  784.8195
C     1.630704    0.315419   -0.061218    0.002177   -0.000562    0.012032
C     1.417035   -1.022608   -0.025784   -0.000954   -0.017372   -0.195734
N     0.155759   -1.538472    0.232866    0.010765    0.025774    0.353132
C    -1.022565   -0.804649   -0.263850   -0.028386   -0.077990   -1.026318
N    -0.755191    0.589418    0.112202    0.008151    0.031304    0.401919
C     0.489558    1.232643   -0.150315   -0.003243   -0.007949   -0.131580
O    -2.118614   -1.255704    0.255547    0.005242    0.023267    0.314250
O     0.548138    2.445929   -0.184640    0.000883    0.005619    0.040037
H     2.239452   -1.732044    0.208478    0.014079    0.026842    0.394932
H     0.003407   -2.553147    0.118920   -0.003151   -0.016955   -0.214670
H    -1.591212    1.147253   -0.459176   -0.033369   -0.090824   -1.210441
H     2.639874    0.761355    0.183075    0.024684    0.067025    0.900947
12
* Frequency(17)  784.8195
C     1.630724    0.315414   -0.061104    0.002177   -0.000562    0.012032
C     1.417026   -1.022774   -0.027646   -0.000954   -0.017372   -0.195734
N     0.155861   -1.538227    0.236225    0.010765    0.025774    0.353132
C    -1.022835   -0.805391   -0.273615   -0.028386   -0.077990   -1.026318
N    -0.755114    0.589716    0.116026    0.008151    0.031304    0.401919
C     0.489528    1.232567   -0.151567   -0.003243   -0.007949   -0.131580
O    -2.118564   -1.255482    0.258537    0.005242    0.023267    0.314250
O     0.548146    2.445982   -0.184259    0.000883    0.005619    0.040037
H     2.239586   -1.731789    0.212236    0.014079    0.026842    0.394932
H     0.003377   -2.553308    0.116878   -0.003151   -0.016955   -0.214670
H    -1.591529    1.146389   -0.470693   -0.033369   -0.090824   -1.210441
H     2.640109    0.761993    0.191647    0.024684    0.067025    0.900947
12
* Frequency(17)  784.8195
C     1.630663    0.315430   -0.061444    0.002177   -0.000562    0.012032
C     1.417053   -1.022282   -0.022110   -0.000954   -0.017372   -0.195734
N     0.155557   -1.538956    0.226237    0.010765    0.025774    0.353132
C    -1.022033   -0.803185   -0.244587   -0.028386   -0.077990   -1.026318
N    -0.755344    0.588830    0.104659    0.008151    0.031304    0.401919
C     0.489619    1.232792   -0.147845   -0.003243   -0.007949   -0.131580
O    -2.118712   -1.256140    0.249648    0.005242    0.023267    0.314250
O     0.548121    2.445823   -0.185391    0.000883    0.005619    0.040037
H     2.239187   -1.732548    0.201066    0.014079    0.026842    0.394932
H     0.003466   -2.552829    0.122950   -0.003151   -0.016955   -0.214670
H    -1.590585    1.148958   -0.436457   -0.033369   -0.090824   -1.210441
H     2.639411    0.760097    0.166165    0.024684    0.067025    0.900947
12
* Frequency(17)  784.8195
C     1.630526    0.315465   -0.062202    0.002177   -0.000562    0.012032
C     1.417113   -1.021187   -0.009775   -0.000954   -0.017372   -0.195734
N     0.154878   -1.540580    0.203984    0.010765    0.025774    0.353132
C    -1.020244   -0.798270   -0.179911   -0.028386   -0.077990   -1.026318
N    -0.755858    0.586858    0.079331    0.008151    0.031304    0.401919
C     0.489824    1.233293   -0.139553   -0.003243   -0.007949   -0.131580
O    -2.119043   -1.257606    0.229845    0.005242    0.023267    0.314250
O     0.548066    2.445469   -0.187914    0.000883    0.005619    0.040037
H     2.238300   -1.734240    0.176178    0.014079    0.026842    0.394932
H     0.003665   -2.551760    0.136477   -0.003151   -0.016955   -0.214670
H    -1.588482    1.154681   -0.360178   -0.033369   -0.090824   -1.210441
H     2.637855    0.755873    0.109390    0.024684    0.067025    0.900947
12
* Frequency(17)  784.8195
C     1.630328    0.315516   -0.063296    0.002177   -0.000562    0.012032
C     1.417200   -1.019608    0.008021   -0.000954   -0.017372   -0.195734
N     0.153899   -1.542923    0.171877    0.010765    0.025774    0.353132
C    -1.017663   -0.791179   -0.086596   -0.028386   -0.077990   -1.026318
N    -0.756599    0.584012    0.042788    0.008151    0.031304    0.401919
C     0.490118    1.234016   -0.127590   -0.003243   -0.007949   -0.131580
O    -2.119519   -1.259722    0.201273    0.005242    0.023267    0.314250
O     0.547986    2.444958   -0.191554    0.000883    0.005619    0.040037
H     2.237020   -1.736680    0.140270    0.014079    0.026842    0.394932
H     0.003951   -2.550219    0.155996   -0.003151   -0.016955   -0.214670
H    -1.585448    1.162939   -0.250123   -0.033369   -0.090824   -1.210441
H     2.635611    0.749779    0.027474    0.024684    0.067025    0.900947
12
* Frequency(17)  784.8195
C     1.630090    0.315578   -0.064608    0.002177   -0.000562    0.012032
C     1.417304   -1.017715    0.029351   -0.000954   -0.017372   -0.195734
N     0.152726   -1.545732    0.133395    0.010765    0.025774    0.353132
C    -1.014569   -0.782681    0.025245   -0.028386   -0.077990   -1.026318
N    -0.757487    0.580600   -0.001011    0.008151    0.031304    0.401919
C     0.490472    1.234882   -0.113251   -0.003243   -0.007949   -0.131580
O    -2.120091   -1.262257    0.167028    0.005242    0.023267    0.314250
O     0.547889    2.444346   -0.195917    0.000883    0.005619    0.040037
H     2.235486   -1.739605    0.097233    0.014079    0.026842    0.394932
H     0.004295   -2.548371    0.179389   -0.003151   -0.016955   -0.214670
H    -1.581812    1.172836   -0.118217   -0.033369   -0.090824   -1.210441
H     2.632921    0.742475   -0.070705    0.024684    0.067025    0.900947
12
* Frequency(17)  784.8195
C     1.629840    0.315642   -0.065994    0.002177   -0.000562    0.012032
C     1.417414   -1.015713    0.051903   -0.000954   -0.017372   -0.195734
N     0.151486   -1.548702    0.092708    0.010765    0.025774    0.353132
C    -1.011299   -0.773695    0.143494   -0.028386   -0.077990   -1.026318
N    -0.758426    0.576994   -0.047319    0.008151    0.031304    0.401919
C     0.490845    1.235798   -0.098091   -0.003243   -0.007949   -0.131580
O    -2.120695   -1.264938    0.130821    0.005242    0.023267    0.314250
O     0.547788    2.443698   -0.200530    0.000883    0.005619    0.040037
H     2.233864   -1.742698    0.051730    0.014079    0.026842    0.394932
H     0.004658   -2.546418    0.204123   -0.003151   -0.016955   -0.214670
H    -1.577967    1.183301    0.021246   -0.033369   -0.090824   -1.210441
H     2.630077    0.734753   -0.174509    0.024684    0.067025    0.900947
12
* Frequency(17)  784.8195
C     1.629602    0.315704   -0.067305    0.002177   -0.000562    0.012032
C     1.417518   -1.013820    0.073233   -0.000954   -0.017372   -0.195734
N     0.150313   -1.551511    0.054226    0.010765    0.025774    0.353132
C    -1.008206   -0.765196    0.255335   -0.028386   -0.077990   -1.026318
N    -0.759314    0.573582   -0.091117    0.008151    0.031304    0.401919
C     0.491199    1.236664   -0.083752   -0.003243   -0.007949   -0.131580
O    -2.121266   -1.267474    0.096577    0.005242    0.023267    0.314250
O     0.547691    2.443086   -0.204893    0.000883    0.005619    0.040037
H     2.232330   -1.745623    0.008693    0.014079    0.026842    0.394932
H     0.005001   -2.544570    0.227516   -0.003151   -0.016955   -0.214670
H    -1.574331    1.193198    0.153152   -0.033369   -0.090824   -1.210441
H     2.627387    0.727449   -0.272688    0.024684    0.067025    0.900947
12
* Frequency(17)  784.8195
C     1.629404    0.315755   -0.068399    0.002177   -0.000562    0.012032
C     1.417605   -1.012241    0.091029   -0.000954   -0.017372   -0.195734
N     0.149334   -1.553854    0.022119    0.010765    0.025774    0.353132
C    -1.005625   -0.758105    0.348650   -0.028386   -0.077990   -1.026318
N    -0.760056    0.570736   -0.127660    0.008151    0.031304    0.401919
C     0.491494    1.237387   -0.071788   -0.003243   -0.007949   -0.131580
O    -2.121743   -1.269589    0.068004    0.005242    0.023267    0.314250
O     0.547611    2.442575   -0.208533    0.000883    0.005619    0.040037
H     2.231050   -1.748064   -0.027215    0.014079    0.026842    0.394932
H     0.005288   -2.543028    0.247034   -0.003151   -0.016955   -0.214670
H    -1.571297    1.201456    0.263207   -0.033369   -0.090824   -1.210441
H     2.625143    0.721355   -0.354604    0.024684    0.067025    0.900947
12
* Frequency(17)  784.8195
C     1.629267    0.315790   -0.069158    0.002177   -0.000562    0.012032
C     1.417665   -1.011146    0.103364   -0.000954   -0.017372   -0.195734
N     0.148656   -1.555478   -0.000135    0.010765    0.025774    0.353132
C    -1.003836   -0.753190    0.413325   -0.028386   -0.077990   -1.026318
N    -0.760569    0.568763   -0.152988    0.008151    0.031304    0.401919
C     0.491698    1.237888   -0.063497   -0.003243   -0.007949   -0.131580
O    -2.122073   -1.271055    0.048201    0.005242    0.023267    0.314250
O     0.547555    2.442221   -0.211056    0.000883    0.005619    0.040037
H     2.230162   -1.749755   -0.052102    0.014079    0.026842    0.394932
H     0.005487   -2.541960    0.260562   -0.003151   -0.016955   -0.214670
H    -1.569194    1.207180    0.339486   -0.033369   -0.090824   -1.210441
H     2.623587    0.717131   -0.411379    0.024684    0.067025    0.900947
12
* Frequency(17)  784.8195
C     1.629206    0.315806   -0.069498    0.002177   -0.000562    0.012032
C     1.417692   -1.010655    0.108900   -0.000954   -0.017372   -0.195734
N     0.148351   -1.556207   -0.010123    0.010765    0.025774    0.353132
C    -1.003033   -0.750985    0.442354   -0.028386   -0.077990   -1.026318
N    -0.760800    0.567878   -0.164356    0.008151    0.031304    0.401919
C     0.491790    1.238113   -0.059775   -0.003243   -0.007949   -0.131580
O    -2.122221   -1.271713    0.039313    0.005242    0.023267    0.314250
O     0.547530    2.442062   -0.212189    0.000883    0.005619    0.040037
H     2.229764   -1.750514   -0.063273    0.014079    0.026842    0.394932
H     0.005576   -2.541480    0.266634   -0.003151   -0.016955   -0.214670
H    -1.568250    1.209748    0.373722   -0.033369   -0.090824   -1.210441
H     2.622889    0.715235   -0.436862    0.024684    0.067025    0.900947
12
* Frequency(17)  784.8195
C     1.629226    0.315801   -0.069383    0.002177   -0.000562    0.012032
C     1.417683   -1.010820    0.107038   -0.000954   -0.017372   -0.195734
N     0.148454   -1.555962   -0.006763    0.010765    0.025774    0.353132
C    -1.003303   -0.751727    0.432589   -0.028386   -0.077990   -1.026318
N    -0.760722    0.568176   -0.160532    0.008151    0.031304    0.401919
C     0.491759    1.238037   -0.061027   -0.003243   -0.007949   -0.131580
O    -2.122171   -1.271492    0.042303    0.005242    0.023267    0.314250
O     0.547539    2.442116   -0.211808    0.000883    0.005619    0.040037
H     2.229898   -1.750259   -0.059515    0.014079    0.026842    0.394932
H     0.005546   -2.541641    0.264591   -0.003151   -0.016955   -0.214670
H    -1.568568    1.208884    0.362205   -0.033369   -0.090824   -1.210441
H     2.623124    0.715873   -0.428289    0.024684    0.067025    0.900947
12
* Frequency(17)  784.8195
C     1.629327    0.315775   -0.068826    0.002177   -0.000562    0.012032
C     1.417639   -1.011624    0.097979   -0.000954   -0.017372   -0.195734
N     0.148952   -1.554769    0.009581    0.010765    0.025774    0.353132
C    -1.004617   -0.755336    0.385089   -0.028386   -0.077990   -1.026318
N    -0.760345    0.569625   -0.141930    0.008151    0.031304    0.401919
C     0.491609    1.237669   -0.067117   -0.003243   -0.007949   -0.131580
O    -2.121929   -1.270415    0.056847    0.005242    0.023267    0.314250
O     0.547580    2.442376   -0.209955    0.000883    0.005619    0.040037
H     2.230550   -1.749017   -0.041237    0.014079    0.026842    0.394932
H     0.005400   -2.542426    0.254656   -0.003151   -0.016955   -0.214670
H    -1.570112    1.204681    0.306184   -0.033369   -0.090824   -1.210441
H     2.624266    0.718975   -0.386592    0.024684    0.067025    0.900947
12
* Frequency(17)  784.8195
C     1.629497    0.315731   -0.067888    0.002177   -0.000562    0.012032
C     1.417564   -1.012980    0.082705   -0.000954   -0.017372   -0.195734
N     0.149792   -1.552758    0.037137    0.010765    0.025774    0.353132
C    -1.006832   -0.761422    0.305002   -0.028386   -0.077990   -1.026318
N    -0.759709    0.572067   -0.110567    0.008151    0.031304    0.401919
C     0.491356    1.237049   -0.077384   -0.003243   -0.007949   -0.131580
O    -2.121520   -1.268600    0.081369    0.005242    0.023267    0.314250
O     0.547649    2.442814   -0.206830    0.000883    0.005619    0.040037
H     2.231648   -1.746922   -0.010419    0.014079    0.026842    0.394932
H     0.005154   -2.543749    0.237904   -0.003151   -0.016955   -0.214670
H    -1.572716    1.197593    0.211728   -0.033369   -0.090824   -1.210441
H     2.626193    0.724205   -0.316288    0.024684    0.067025    0.900947
12
* Frequency(17)  784.8195
C     1.629718    0.315674   -0.066668    0.002177   -0.000562    0.012032
C     1.417467   -1.014740    0.062871   -0.000954   -0.017372   -0.195734
N     0.150883   -1.550146    0.072920    0.010765    0.025774    0.353132
C    -1.009708   -0.769325    0.201005   -0.028386   -0.077990   -1.026318
N    -0.758883    0.575239   -0.069841    0.008151    0.031304    0.401919
C     0.491027    1.236243   -0.090717   -0.003243   -0.007949   -0.131580
O    -2.120988   -1.266242    0.113212    0.005242    0.023267    0.314250
O     0.547738    2.443383   -0.202774    0.000883    0.005619    0.040037
H     2.233075   -1.744202    0.029600    0.014079    0.026842    0.394932
H     0.004835   -2.545467    0.216152   -0.003151   -0.016955   -0.214670
H    -1.576098    1.188390    0.089075   -0.033369   -0.090824   -1.210441
H     2.628694    0.730997   -0.224995    0.024684    0.067025    0.900947
12
* Frequency(17)  784.8195
C     1.629965    0.315610   -0.065301    0.002177   -0.000562    0.012032
C     1.417359   -1.016714    0.040627   -0.000954   -0.017372   -0.195734
N     0.152106   -1.547217    0.113051    0.010765    0.025774    0.353132
C    -1.012934   -0.778188    0.084369   -0.028386   -0.077990   -1.026318
N    -0.757957    0.578797   -0.024165    0.008151    0.031304    0.401919
C     0.490659    1.235340   -0.105671   -0.003243   -0.007949   -0.131580
O    -2.120393   -1.263598    0.148925    0.005242    0.023267    0.314250
O     0.547838    2.444022   -0.198224    0.000883    0.005619    0.040037
H     2.234675   -1.741152    0.074482    0.014079    0.026842    0.394932
H     0.004476   -2.547394    0.191756   -0.003151   -0.016955   -0.214670
H    -1.579890    1.178069   -0.048486   -0.033369   -0.090824   -1.210441
H     2.631499    0.738614   -0.122607    0.024684    0.067025    0.900947
