12
* (null), Energy   -1000.0000000
C     1.326706    0.515754   -0.072626   -0.004562   -0.012080   -0.162833
C     1.114284   -0.816584    0.032594    0.007133    0.019745    0.264092
N    -0.151041   -1.347120    0.103530   -0.000758   -0.001747   -0.020128
C    -1.315628   -0.577682    0.076752   -0.000984   -0.002282   -0.030323
N    -1.060936    0.779065   -0.032267    0.001114    0.001322    0.014393
C     0.187706    1.435734   -0.112929   -0.000751   -0.002048   -0.026454
O    -2.423226   -1.063291    0.142349   -0.000052    0.000186    0.005913
O     0.244598    2.644464   -0.204665    0.000033    0.000237    0.002729
H     1.931646   -1.540867    0.066907   -0.041236   -0.127637   -1.692675
H    -0.299216   -2.347153    0.186398    0.001384    0.009051    0.114804
H    -1.882973    1.378347   -0.056429    0.001386    0.000744   -0.008544
H     2.328081    0.939334   -0.129643    0.023870    0.077291    0.998909
12
* Frequency(20)  978.8839
C     1.326188    0.514381   -0.091131   -0.004562   -0.012080   -0.162833
C     1.115094   -0.814340    0.062607    0.007133    0.019745    0.264092
N    -0.151127   -1.347319    0.101242   -0.000758   -0.001747   -0.020128
C    -1.315740   -0.577941    0.073306   -0.000984   -0.002282   -0.030323
N    -1.060809    0.779215   -0.030631    0.001114    0.001322    0.014393
C     0.187621    1.435501   -0.115936   -0.000751   -0.002048   -0.026454
O    -2.423232   -1.063270    0.143021   -0.000052    0.000186    0.005913
O     0.244602    2.644491   -0.204355    0.000033    0.000237    0.002729
H     1.926960   -1.555373   -0.125456   -0.041236   -0.127637   -1.692675
H    -0.299059   -2.346125    0.199445    0.001384    0.009051    0.114804
H    -1.882816    1.378431   -0.057400    0.001386    0.000744   -0.008544
H     2.330794    0.948118   -0.016123    0.023870    0.077291    0.998909
12
* Frequency(20)  978.8839
C     1.325725    0.513157   -0.107631   -0.004562   -0.012080   -0.162833
C     1.115817   -0.812339    0.089367    0.007133    0.019745    0.264092
N    -0.151204   -1.347496    0.099203   -0.000758   -0.001747   -0.020128
C    -1.315840   -0.578172    0.070233   -0.000984   -0.002282   -0.030323
N    -1.060696    0.779349   -0.029173    0.001114    0.001322    0.014393
C     0.187545    1.435294   -0.118616   -0.000751   -0.002048   -0.026454
O    -2.423237   -1.063251    0.143620   -0.000052    0.000186    0.005913
O     0.244605    2.644515   -0.204078    0.000033    0.000237    0.002729
H     1.922781   -1.568306   -0.296975   -0.041236   -0.127637   -1.692675
H    -0.298919   -2.345208    0.211078    0.001384    0.009051    0.114804
H    -1.882675    1.378507   -0.058265    0.001386    0.000744   -0.008544
H     2.333212    0.955950    0.085097    0.023870    0.077291    0.998909
12
* Frequency(20)  978.8839
C     1.325369    0.512214   -0.120337   -0.004562   -0.012080   -0.162833
C     1.116374   -0.810798    0.109975    0.007133    0.019745    0.264092
N    -0.151263   -1.347632    0.097632   -0.000758   -0.001747   -0.020128
C    -1.315917   -0.578350    0.067867   -0.000984   -0.002282   -0.030323
N    -1.060609    0.779452   -0.028050    0.001114    0.001322    0.014393
C     0.187486    1.435134   -0.120680   -0.000751   -0.002048   -0.026454
O    -2.423241   -1.063236    0.144081   -0.000052    0.000186    0.005913
O     0.244608    2.644534   -0.203865    0.000033    0.000237    0.002729
H     1.919563   -1.578266   -0.429061   -0.041236   -0.127637   -1.692675
H    -0.298811   -2.344501    0.220036    0.001384    0.009051    0.114804
H    -1.882567    1.378565   -0.058932    0.001386    0.000744   -0.008544
H     2.335075    0.961981    0.163045    0.023870    0.077291    0.998909
12
* Frequency(20)  978.8839
C     1.325158    0.511655   -0.127873   -0.004562   -0.012080   -0.162833
C     1.116704   -0.809885    0.122198    0.007133    0.019745    0.264092
N    -0.151299   -1.347713    0.096701   -0.000758   -0.001747   -0.020128
C    -1.315962   -0.578456    0.066464   -0.000984   -0.002282   -0.030323
N    -1.060558    0.779513   -0.027384    0.001114    0.001322    0.014393
C     0.187451    1.435039   -0.121905   -0.000751   -0.002048   -0.026454
O    -2.423244   -1.063228    0.144355   -0.000052    0.000186    0.005913
O     0.244609    2.644545   -0.203739    0.000033    0.000237    0.002729
H     1.917655   -1.584173   -0.507401   -0.041236   -0.127637   -1.692675
H    -0.298747   -2.344082    0.225350    0.001384    0.009051    0.114804
H    -1.882503    1.378599   -0.059328    0.001386    0.000744   -0.008544
H     2.336180    0.965558    0.209276    0.023870    0.077291    0.998909
12
* Frequency(20)  978.8839
C     1.325115    0.511540   -0.129423   -0.004562   -0.012080   -0.162833
C     1.116772   -0.809697    0.124711    0.007133    0.019745    0.264092
N    -0.151306   -1.347729    0.096509   -0.000758   -0.001747   -0.020128
C    -1.315971   -0.578478    0.066175   -0.000984   -0.002282   -0.030323
N    -1.060547    0.779526   -0.027247    0.001114    0.001322    0.014393
C     0.187444    1.435020   -0.122157   -0.000751   -0.002048   -0.026454
O    -2.423244   -1.063226    0.144411   -0.000052    0.000186    0.005913
O     0.244610    2.644547   -0.203713    0.000033    0.000237    0.002729
H     1.917263   -1.585388   -0.523506   -0.041236   -0.127637   -1.692675
H    -0.298734   -2.343996    0.226442    0.001384    0.009051    0.114804
H    -1.882490    1.378606   -0.059409    0.001386    0.000744   -0.008544
H     2.336407    0.966293    0.218781    0.023870    0.077291    0.998909
12
* Frequency(20)  978.8839
C     1.325244    0.511882   -0.124817   -0.004562   -0.012080   -0.162833
C     1.116570   -0.810255    0.117241    0.007133    0.019745    0.264092
N    -0.151284   -1.347680    0.097078   -0.000758   -0.001747   -0.020128
C    -1.315944   -0.578413    0.067033   -0.000984   -0.002282   -0.030323
N    -1.060579    0.779488   -0.027654    0.001114    0.001322    0.014393
C     0.187465    1.435078   -0.121408   -0.000751   -0.002048   -0.026454
O    -2.423243   -1.063231    0.144244   -0.000052    0.000186    0.005913
O     0.244609    2.644540   -0.203790    0.000033    0.000237    0.002729
H     1.918429   -1.581778   -0.475630   -0.041236   -0.127637   -1.692675
H    -0.298773   -2.344252    0.223195    0.001384    0.009051    0.114804
H    -1.882529    1.378585   -0.059167    0.001386    0.000744   -0.008544
H     2.335732    0.964107    0.190528    0.023870    0.077291    0.998909
12
* Frequency(20)  978.8839
C     1.325531    0.512643   -0.114556   -0.004562   -0.012080   -0.162833
C     1.116120   -0.811499    0.100599    0.007133    0.019745    0.264092
N    -0.151237   -1.347570    0.098347   -0.000758   -0.001747   -0.020128
C    -1.315882   -0.578269    0.068944   -0.000984   -0.002282   -0.030323
N    -1.060649    0.779405   -0.028561    0.001114    0.001322    0.014393
C     0.187513    1.435207   -0.119741   -0.000751   -0.002048   -0.026454
O    -2.423240   -1.063243    0.143871   -0.000052    0.000186    0.005913
O     0.244607    2.644525   -0.203962    0.000033    0.000237    0.002729
H     1.921028   -1.573734   -0.368962   -0.041236   -0.127637   -1.692675
H    -0.298860   -2.344823    0.215960    0.001384    0.009051    0.114804
H    -1.882616    1.378538   -0.058629    0.001386    0.000744   -0.008544
H     2.334227    0.959237    0.127579    0.023870    0.077291    0.998909
12
* Frequency(20)  978.8839
C     1.325946    0.513741   -0.099751   -0.004562   -0.012080   -0.162833
C     1.115472   -0.813295    0.076587    0.007133    0.019745    0.264092
N    -0.151168   -1.347411    0.100177   -0.000758   -0.001747   -0.020128
C    -1.315792   -0.578062    0.071701   -0.000984   -0.002282   -0.030323
N    -1.060750    0.779285   -0.029870    0.001114    0.001322    0.014393
C     0.187581    1.435393   -0.117336   -0.000751   -0.002048   -0.026454
O    -2.423235   -1.063260    0.143334   -0.000052    0.000186    0.005913
O     0.244604    2.644504   -0.204210    0.000033    0.000237    0.002729
H     1.924777   -1.562129   -0.215061   -0.041236   -0.127637   -1.692675
H    -0.298986   -2.345646    0.205522    0.001384    0.009051    0.114804
H    -1.882742    1.378471   -0.057852    0.001386    0.000744   -0.008544
H     2.332057    0.952209    0.036756    0.023870    0.077291    0.998909
12
* Frequency(20)  978.8839
C     1.326443    0.515058   -0.082006   -0.004562   -0.012080   -0.162833
C     1.114694   -0.815446    0.047808    0.007133    0.019745    0.264092
N    -0.151085   -1.347221    0.102370   -0.000758   -0.001747   -0.020128
C    -1.315685   -0.577813    0.075005   -0.000984   -0.002282   -0.030323
N    -1.060872    0.779141   -0.031438    0.001114    0.001322    0.014393
C     0.187663    1.435616   -0.114453   -0.000751   -0.002048   -0.026454
O    -2.423229   -1.063280    0.142689   -0.000052    0.000186    0.005913
O     0.244600    2.644478   -0.204508    0.000033    0.000237    0.002729
H     1.929271   -1.548220   -0.030605   -0.041236   -0.127637   -1.692675
H    -0.299137   -2.346632    0.193011    0.001384    0.009051    0.114804
H    -1.882893    1.378390   -0.056921    0.001386    0.000744   -0.008544
H     2.329456    0.943786   -0.072098    0.023870    0.077291    0.998909
12
* Frequency(20)  978.8839
C     1.326969    0.516449   -0.063245   -0.004562   -0.012080   -0.162833
C     1.113873   -0.817721    0.017380    0.007133    0.019745    0.264092
N    -0.150998   -1.347019    0.104689   -0.000758   -0.001747   -0.020128
C    -1.315571   -0.577550    0.078499   -0.000984   -0.002282   -0.030323
N    -1.061000    0.778988   -0.033096    0.001114    0.001322    0.014393
C     0.187749    1.435852   -0.111405   -0.000751   -0.002048   -0.026454
O    -2.423223   -1.063302    0.142008   -0.000052    0.000186    0.005913
O     0.244596    2.644451   -0.204822    0.000033    0.000237    0.002729
H     1.934022   -1.533514    0.164419   -0.041236   -0.127637   -1.692675
H    -0.299296   -2.347675    0.179784    0.001384    0.009051    0.114804
H    -1.883053    1.378304   -0.055937    0.001386    0.000744   -0.008544
H     2.326706    0.934881   -0.187189    0.023870    0.077291    0.998909
12
* Frequency(20)  978.8839
C     1.327466    0.517766   -0.045501   -0.004562   -0.012080   -0.162833
C     1.113095   -0.819873   -0.011399    0.007133    0.019745    0.264092
N    -0.150915   -1.346829    0.106883   -0.000758   -0.001747   -0.020128
C    -1.315464   -0.577302    0.081803   -0.000984   -0.002282   -0.030323
N    -1.061121    0.778844   -0.034665    0.001114    0.001322    0.014393
C     0.187831    1.436075   -0.108523   -0.000751   -0.002048   -0.026454
O    -2.423217   -1.063322    0.141363   -0.000052    0.000186    0.005913
O     0.244593    2.644425   -0.205120    0.000033    0.000237    0.002729
H     1.938515   -1.519605    0.348876   -0.041236   -0.127637   -1.692675
H    -0.299447   -2.348661    0.167273    0.001384    0.009051    0.114804
H    -1.883204    1.378223   -0.055006    0.001386    0.000744   -0.008544
H     2.324104    0.926459   -0.296043    0.023870    0.077291    0.998909
12
* Frequency(20)  978.8839
C     1.327881    0.518864   -0.030696   -0.004562   -0.012080   -0.162833
C     1.112447   -0.821668   -0.035410    0.007133    0.019745    0.264092
N    -0.150846   -1.346670    0.108713   -0.000758   -0.001747   -0.020128
C    -1.315375   -0.577094    0.084560   -0.000984   -0.002282   -0.030323
N    -1.061222    0.778724   -0.035973    0.001114    0.001322    0.014393
C     0.187899    1.436261   -0.106117   -0.000751   -0.002048   -0.026454
O    -2.423213   -1.063339    0.140826   -0.000052    0.000186    0.005913
O     0.244590    2.644403   -0.205368    0.000033    0.000237    0.002729
H     1.942265   -1.508000    0.502777   -0.041236   -0.127637   -1.692675
H    -0.299573   -2.349484    0.156835    0.001384    0.009051    0.114804
H    -1.883330    1.378155   -0.054229    0.001386    0.000744   -0.008544
H     2.321934    0.919431   -0.386866    0.023870    0.077291    0.998909
12
* Frequency(20)  978.8839
C     1.328168    0.519625   -0.020435   -0.004562   -0.012080   -0.162833
C     1.111997   -0.822912   -0.052053    0.007133    0.019745    0.264092
N    -0.150798   -1.346560    0.109981   -0.000758   -0.001747   -0.020128
C    -1.315313   -0.576950    0.086471   -0.000984   -0.002282   -0.030323
N    -1.061293    0.778641   -0.036880    0.001114    0.001322    0.014393
C     0.187947    1.436390   -0.104450   -0.000751   -0.002048   -0.026454
O    -2.423209   -1.063350    0.140453   -0.000052    0.000186    0.005913
O     0.244588    2.644388   -0.205540    0.000033    0.000237    0.002729
H     1.944863   -1.499957    0.609445   -0.041236   -0.127637   -1.692675
H    -0.299660   -2.350054    0.149601    0.001384    0.009051    0.114804
H    -1.883417    1.378108   -0.053690    0.001386    0.000744   -0.008544
H     2.320430    0.914560   -0.449814    0.023870    0.077291    0.998909
12
* Frequency(20)  978.8839
C     1.328297    0.519967   -0.015829   -0.004562   -0.012080   -0.162833
C     1.111795   -0.823471   -0.059522    0.007133    0.019745    0.264092
N    -0.150777   -1.346511    0.110550   -0.000758   -0.001747   -0.020128
C    -1.315285   -0.576886    0.087329   -0.000984   -0.002282   -0.030323
N    -1.061324    0.778604   -0.037287    0.001114    0.001322    0.014393
C     0.187968    1.436448   -0.103702   -0.000751   -0.002048   -0.026454
O    -2.423208   -1.063356    0.140286   -0.000052    0.000186    0.005913
O     0.244587    2.644381   -0.205617    0.000033    0.000237    0.002729
H     1.946030   -1.496347    0.657320   -0.041236   -0.127637   -1.692675
H    -0.299699   -2.350310    0.146353    0.001384    0.009051    0.114804
H    -1.883457    1.378087   -0.053449    0.001386    0.000744   -0.008544
H     2.319755    0.912374   -0.478067    0.023870    0.077291    0.998909
12
* Frequency(20)  978.8839
C     1.328254    0.519852   -0.017378   -0.004562   -0.012080   -0.162833
C     1.111863   -0.823283   -0.057009    0.007133    0.019745    0.264092
N    -0.150784   -1.346527    0.110359   -0.000758   -0.001747   -0.020128
C    -1.315294   -0.576908    0.087040   -0.000984   -0.002282   -0.030323
N    -1.061314    0.778616   -0.037150    0.001114    0.001322    0.014393
C     0.187961    1.436429   -0.103954   -0.000751   -0.002048   -0.026454
O    -2.423208   -1.063354    0.140342   -0.000052    0.000186    0.005913
O     0.244587    2.644384   -0.205591    0.000033    0.000237    0.002729
H     1.945637   -1.497561    0.641215   -0.041236   -0.127637   -1.692675
H    -0.299686   -2.350224    0.147446    0.001384    0.009051    0.114804
H    -1.883443    1.378094   -0.053530    0.001386    0.000744   -0.008544
H     2.319982    0.913110   -0.468563    0.023870    0.077291    0.998909
12
* Frequency(20)  978.8839
C     1.328043    0.519293   -0.024914   -0.004562   -0.012080   -0.162833
C     1.112193   -0.822369   -0.044787    0.007133    0.019745    0.264092
N    -0.150819   -1.346608    0.109427   -0.000758   -0.001747   -0.020128
C    -1.315340   -0.577013    0.085637   -0.000984   -0.002282   -0.030323
N    -1.061262    0.778677   -0.036484    0.001114    0.001322    0.014393
C     0.187926    1.436334   -0.105178   -0.000751   -0.002048   -0.026454
O    -2.423211   -1.063345    0.140616   -0.000052    0.000186    0.005913
O     0.244589    2.644395   -0.205465    0.000033    0.000237    0.002729
H     1.943729   -1.503469    0.562875   -0.041236   -0.127637   -1.692675
H    -0.299622   -2.349805    0.152759    0.001384    0.009051    0.114804
H    -1.883379    1.378129   -0.053925    0.001386    0.000744   -0.008544
H     2.321087    0.916687   -0.422332    0.023870    0.077291    0.998909
12
* Frequency(20)  978.8839
C     1.327687    0.518350   -0.037621   -0.004562   -0.012080   -0.162833
C     1.112750   -0.820828   -0.024179    0.007133    0.019745    0.264092
N    -0.150878   -1.346744    0.107857   -0.000758   -0.001747   -0.020128
C    -1.315416   -0.577191    0.083271   -0.000984   -0.002282   -0.030323
N    -1.061175    0.778780   -0.035361    0.001114    0.001322    0.014393
C     0.187868    1.436174   -0.107242   -0.000751   -0.002048   -0.026454
O    -2.423215   -1.063331    0.141077   -0.000052    0.000186    0.005913
O     0.244591    2.644413   -0.205252    0.000033    0.000237    0.002729
H     1.940511   -1.513429    0.430789   -0.041236   -0.127637   -1.692675
H    -0.299514   -2.349099    0.161718    0.001384    0.009051    0.114804
H    -1.883271    1.378187   -0.054592    0.001386    0.000744   -0.008544
H     2.322949    0.922718   -0.344383    0.023870    0.077291    0.998909
12
* Frequency(20)  978.8839
C     1.327224    0.517126   -0.054121   -0.004562   -0.012080   -0.162833
C     1.113473   -0.818828    0.002582    0.007133    0.019745    0.264092
N    -0.150955   -1.346921    0.105817   -0.000758   -0.001747   -0.020128
C    -1.315516   -0.577423    0.080198   -0.000984   -0.002282   -0.030323
N    -1.061062    0.778914   -0.033903    0.001114    0.001322    0.014393
C     0.187791    1.435967   -0.109923   -0.000751   -0.002048   -0.026454
O    -2.423220   -1.063312    0.141677   -0.000052    0.000186    0.005913
O     0.244594    2.644437   -0.204975    0.000033    0.000237    0.002729
H     1.936332   -1.526362    0.259271   -0.041236   -0.127637   -1.692675
H    -0.299374   -2.348182    0.173351    0.001384    0.009051    0.114804
H    -1.883131    1.378262   -0.055458    0.001386    0.000744   -0.008544
H     2.325368    0.930550   -0.243164    0.023870    0.077291    0.998909
12
* Frequency(20)  978.8839
C     1.326706    0.515754   -0.072626   -0.004562   -0.012080   -0.162833
C     1.114284   -0.816584    0.032594    0.007133    0.019745    0.264092
N    -0.151041   -1.347120    0.103530   -0.000758   -0.001747   -0.020128
C    -1.315628   -0.577682    0.076752   -0.000984   -0.002282   -0.030323
N    -1.060936    0.779065   -0.032267    0.001114    0.001322    0.014393
C     0.187706    1.435734   -0.112929   -0.000751   -0.002048   -0.026454
O    -2.423226   -1.063291    0.142349   -0.000052    0.000186    0.005913
O     0.244598    2.644464   -0.204665    0.000033    0.000237    0.002729
H     1.931646   -1.540867    0.066907   -0.041236   -0.127637   -1.692675
H    -0.299216   -2.347153    0.186398    0.001384    0.009051    0.114804
H    -1.882973    1.378347   -0.056429    0.001386    0.000744   -0.008544
H     2.328081    0.939334   -0.129643    0.023870    0.077291    0.998909
