12
* (null), Energy   -1000.0000000
C     1.326706    0.515754   -0.072626   -0.070107    0.006049    0.001302
C     1.114284   -0.816584    0.032594   -0.184156   -0.122174    0.013951
N    -0.151041   -1.347120    0.103530    0.179319   -0.027209   -0.002480
C    -1.315628   -0.577682    0.076752   -0.076160    0.182027   -0.011817
N    -1.060936    0.779065   -0.032267   -0.143899   -0.096704    0.010972
C     0.187706    1.435734   -0.112929    0.372869    0.005873   -0.009845
O    -2.423226   -1.063291    0.142349    0.024793    0.018326   -0.002024
O     0.244598    2.644464   -0.204665   -0.038936    0.023203   -0.000761
H     1.931646   -1.540867    0.066907   -0.579974   -0.572526    0.056496
H    -0.299216   -2.347153    0.186398    0.803896   -0.109280   -0.012236
H    -1.882973    1.378347   -0.056429   -0.373005   -0.404883    0.039740
H     2.328081    0.939334   -0.129643   -0.624396    1.294162   -0.081425
12
* Frequency(24) 1222.3430
C     1.318739    0.516441   -0.072478   -0.070107    0.006049    0.001302
C     1.093355   -0.830468    0.034180   -0.184156   -0.122174    0.013951
N    -0.130663   -1.350212    0.103248    0.179319   -0.027209   -0.002480
C    -1.324283   -0.556995    0.075409   -0.076160    0.182027   -0.011817
N    -1.077289    0.768075   -0.031020   -0.143899   -0.096704    0.010972
C     0.230081    1.436401   -0.114048    0.372869    0.005873   -0.009845
O    -2.420408   -1.061208    0.142119    0.024793    0.018326   -0.002024
O     0.240173    2.647101   -0.204752   -0.038936    0.023203   -0.000761
H     1.865735   -1.605932    0.073328   -0.579974   -0.572526    0.056496
H    -0.207858   -2.359572    0.185007    0.803896   -0.109280   -0.012236
H    -1.925363    1.332334   -0.051912   -0.373005   -0.404883    0.039740
H     2.257121    1.086409   -0.138897   -0.624396    1.294162   -0.081425
12
* Frequency(24) 1222.3430
C     1.311635    0.517054   -0.072346   -0.070107    0.006049    0.001302
C     1.074695   -0.842848    0.035593   -0.184156   -0.122174    0.013951
N    -0.112492   -1.352969    0.102997    0.179319   -0.027209   -0.002480
C    -1.332001   -0.538551    0.074212   -0.076160    0.182027   -0.011817
N    -1.091870    0.758276   -0.029908   -0.143899   -0.096704    0.010972
C     0.267863    1.436997   -0.115046    0.372869    0.005873   -0.009845
O    -2.417896   -1.059351    0.141913    0.024793    0.018326   -0.002024
O     0.236228    2.649452   -0.204829   -0.038936    0.023203   -0.000761
H     1.806966   -1.663946    0.079052   -0.579974   -0.572526    0.056496
H    -0.126399   -2.370646    0.183767    0.803896   -0.109280   -0.012236
H    -1.963160    1.291307   -0.047886   -0.373005   -0.404883    0.039740
H     2.193852    1.217546   -0.147148   -0.624396    1.294162   -0.081425
12
* Frequency(24) 1222.3430
C     1.306164    0.517526   -0.072244   -0.070107    0.006049    0.001302
C     1.060324   -0.852382    0.036682   -0.184156   -0.122174    0.013951
N    -0.098499   -1.355092    0.102803    0.179319   -0.027209   -0.002480
C    -1.337944   -0.524346    0.073290   -0.076160    0.182027   -0.011817
N    -1.103099    0.750730   -0.029052   -0.143899   -0.096704    0.010972
C     0.296960    1.437455   -0.115814    0.372869    0.005873   -0.009845
O    -2.415961   -1.057921    0.141756    0.024793    0.018326   -0.002024
O     0.233190    2.651263   -0.204888   -0.038936    0.023203   -0.000761
H     1.761709   -1.708622    0.083461   -0.579974   -0.572526    0.056496
H    -0.063668   -2.379173    0.182813    0.803896   -0.109280   -0.012236
H    -1.992267    1.259713   -0.044785   -0.373005   -0.404883    0.039740
H     2.145128    1.318534   -0.153501   -0.624396    1.294162   -0.081425
12
* Frequency(24) 1222.3430
C     1.302919    0.517806   -0.072184   -0.070107    0.006049    0.001302
C     1.051801   -0.858036    0.037328   -0.184156   -0.122174    0.013951
N    -0.090200   -1.356352    0.102688    0.179319   -0.027209   -0.002480
C    -1.341469   -0.515922    0.072743   -0.076160    0.182027   -0.011817
N    -1.109759    0.746254   -0.028544   -0.143899   -0.096704    0.010972
C     0.314217    1.437727   -0.116270    0.372869    0.005873   -0.009845
O    -2.414814   -1.057073    0.141662    0.024793    0.018326   -0.002024
O     0.231388    2.652337   -0.204923   -0.038936    0.023203   -0.000761
H     1.734867   -1.735120    0.086076   -0.579974   -0.572526    0.056496
H    -0.026462   -2.384231    0.182246    0.803896   -0.109280   -0.012236
H    -2.009530    1.240974   -0.042945   -0.373005   -0.404883    0.039740
H     2.116230    1.378430   -0.157270   -0.624396    1.294162   -0.081425
12
* Frequency(24) 1222.3430
C     1.302252    0.517864   -0.072172   -0.070107    0.006049    0.001302
C     1.050049   -0.859199    0.037460   -0.184156   -0.122174    0.013951
N    -0.088494   -1.356611    0.102665    0.179319   -0.027209   -0.002480
C    -1.342193   -0.514190    0.072630   -0.076160    0.182027   -0.011817
N    -1.111128    0.745334   -0.028440   -0.143899   -0.096704    0.010972
C     0.317765    1.437782   -0.116363    0.372869    0.005873   -0.009845
O    -2.414578   -1.056899    0.141643    0.024793    0.018326   -0.002024
O     0.231017    2.652558   -0.204931   -0.038936    0.023203   -0.000761
H     1.729348   -1.740567    0.086613   -0.579974   -0.572526    0.056496
H    -0.018814   -2.385271    0.182130    0.803896   -0.109280   -0.012236
H    -2.013079    1.237122   -0.042567   -0.373005   -0.404883    0.039740
H     2.110289    1.390743   -0.158045   -0.624396    1.294162   -0.081425
12
* Frequency(24) 1222.3430
C     1.304235    0.517693   -0.072208   -0.070107    0.006049    0.001302
C     1.055258   -0.855743    0.037066   -0.184156   -0.122174    0.013951
N    -0.093566   -1.355841    0.102735    0.179319   -0.027209   -0.002480
C    -1.340039   -0.519338    0.072964   -0.076160    0.182027   -0.011817
N    -1.107058    0.748069   -0.028750   -0.143899   -0.096704    0.010972
C     0.307218    1.437616   -0.116085    0.372869    0.005873   -0.009845
O    -2.415279   -1.057417    0.141700    0.024793    0.018326   -0.002024
O     0.232118    2.651901   -0.204909   -0.038936    0.023203   -0.000761
H     1.745752   -1.724374    0.085015   -0.579974   -0.572526    0.056496
H    -0.041551   -2.382180    0.182476    0.803896   -0.109280   -0.012236
H    -2.002529    1.248573   -0.043691   -0.373005   -0.404883    0.039740
H     2.127949    1.354139   -0.155742   -0.624396    1.294162   -0.081425
12
* Frequency(24) 1222.3430
C     1.308653    0.517311   -0.072291   -0.070107    0.006049    0.001302
C     1.066863   -0.848044    0.036187   -0.184156   -0.122174    0.013951
N    -0.104866   -1.354126    0.102891    0.179319   -0.027209   -0.002480
C    -1.335240   -0.530809    0.073709   -0.076160    0.182027   -0.011817
N    -1.097990    0.754163   -0.029442   -0.143899   -0.096704    0.010972
C     0.283721    1.437246   -0.115464    0.372869    0.005873   -0.009845
O    -2.416842   -1.058572    0.141827    0.024793    0.018326   -0.002024
O     0.234572    2.650439   -0.204861   -0.038936    0.023203   -0.000761
H     1.782301   -1.688295    0.081455   -0.579974   -0.572526    0.056496
H    -0.092210   -2.375293    0.183247    0.803896   -0.109280   -0.012236
H    -1.979023    1.274088   -0.046196   -0.373005   -0.404883    0.039740
H     2.167297    1.272585   -0.150610   -0.624396    1.294162   -0.081425
12
* Frequency(24) 1222.3430
C     1.315027    0.516761   -0.072409   -0.070107    0.006049    0.001302
C     1.083606   -0.836936    0.034918   -0.184156   -0.122174    0.013951
N    -0.121170   -1.351652    0.103117    0.179319   -0.027209   -0.002480
C    -1.328315   -0.547360    0.074783   -0.076160    0.182027   -0.011817
N    -1.084907    0.762956   -0.030439   -0.143899   -0.096704    0.010972
C     0.249819    1.436712   -0.114569    0.372869    0.005873   -0.009845
O    -2.419096   -1.060238    0.142011    0.024793    0.018326   -0.002024
O     0.238112    2.648329   -0.204792   -0.038936    0.023203   -0.000761
H     1.835033   -1.636240    0.076318   -0.579974   -0.572526    0.056496
H    -0.165302   -2.365357    0.184359    0.803896   -0.109280   -0.012236
H    -1.945109    1.310901   -0.049809   -0.373005   -0.404883    0.039740
H     2.224068    1.154917   -0.143207   -0.624396    1.294162   -0.081425
12
* Frequency(24) 1222.3430
C     1.322667    0.516102   -0.072551   -0.070107    0.006049    0.001302
C     1.103675   -0.823622    0.033398   -0.184156   -0.122174    0.013951
N    -0.140711   -1.348687    0.103387    0.179319   -0.027209   -0.002480
C    -1.320016   -0.567196    0.076071   -0.076160    0.182027   -0.011817
N    -1.069225    0.773494   -0.031635   -0.143899   -0.096704    0.010972
C     0.209186    1.436072   -0.113496    0.372869    0.005873   -0.009845
O    -2.421798   -1.062235    0.142232    0.024793    0.018326   -0.002024
O     0.242355    2.645801   -0.204709   -0.038936    0.023203   -0.000761
H     1.898235   -1.573850    0.070162   -0.579974   -0.572526    0.056496
H    -0.252905   -2.353449    0.185693    0.803896   -0.109280   -0.012236
H    -1.904461    1.355022   -0.054139   -0.373005   -0.404883    0.039740
H     2.292111    1.013888   -0.134334   -0.624396    1.294162   -0.081425
12
* Frequency(24) 1222.3430
C     1.330745    0.515405   -0.072701   -0.070107    0.006049    0.001302
C     1.124892   -0.809545    0.031791   -0.184156   -0.122174    0.013951
N    -0.161372   -1.345553    0.103673    0.179319   -0.027209   -0.002480
C    -1.311241   -0.588168    0.077433   -0.076160    0.182027   -0.011817
N    -1.052646    0.784636   -0.032899   -0.143899   -0.096704    0.010972
C     0.166226    1.435396   -0.112362    0.372869    0.005873   -0.009845
O    -2.424654   -1.064347    0.142465    0.024793    0.018326   -0.002024
O     0.246841    2.643128   -0.204621   -0.038936    0.023203   -0.000761
H     1.965057   -1.507885    0.063653   -0.579974   -0.572526    0.056496
H    -0.345527   -2.340858    0.187103    0.803896   -0.109280   -0.012236
H    -1.861485    1.401671   -0.058718   -0.373005   -0.404883    0.039740
H     2.364051    0.864780   -0.124953   -0.624396    1.294162   -0.081425
12
* Frequency(24) 1222.3430
C     1.338385    0.514746   -0.072843   -0.070107    0.006049    0.001302
C     1.144961   -0.796232    0.030270   -0.184156   -0.122174    0.013951
N    -0.180912   -1.342588    0.103943    0.179319   -0.027209   -0.002480
C    -1.302941   -0.608004    0.078720   -0.076160    0.182027   -0.011817
N    -1.036965    0.795174   -0.034095   -0.143899   -0.096704    0.010972
C     0.125593    1.434756   -0.111289    0.372869    0.005873   -0.009845
O    -2.427356   -1.066344    0.142686    0.024793    0.018326   -0.002024
O     0.251084    2.640599   -0.204538   -0.038936    0.023203   -0.000761
H     2.028259   -1.445495    0.057496   -0.579974   -0.572526    0.056496
H    -0.433131   -2.328949    0.188436    0.803896   -0.109280   -0.012236
H    -1.820837    1.445793   -0.063049   -0.373005   -0.404883    0.039740
H     2.432094    0.723750   -0.116079   -0.624396    1.294162   -0.081425
12
* Frequency(24) 1222.3430
C     1.344759    0.514196   -0.072961   -0.070107    0.006049    0.001302
C     1.161704   -0.785123    0.029002   -0.184156   -0.122174    0.013951
N    -0.197216   -1.340114    0.104168    0.179319   -0.027209   -0.002480
C    -1.296017   -0.624554    0.079795   -0.076160    0.182027   -0.011817
N    -1.023881    0.803966   -0.035092   -0.143899   -0.096704    0.010972
C     0.091691    1.434222   -0.110394    0.372869    0.005873   -0.009845
O    -2.429610   -1.068010    0.142870    0.024793    0.018326   -0.002024
O     0.254624    2.638489   -0.204469   -0.038936    0.023203   -0.000761
H     2.080991   -1.393440    0.052359   -0.579974   -0.572526    0.056496
H    -0.506222   -2.319013    0.189548    0.803896   -0.109280   -0.012236
H    -1.786923    1.482605   -0.066662   -0.373005   -0.404883    0.039740
H     2.488865    0.606083   -0.108676   -0.624396    1.294162   -0.081425
12
* Frequency(24) 1222.3430
C     1.349177    0.513815   -0.073043   -0.070107    0.006049    0.001302
C     1.173309   -0.777424    0.028123   -0.184156   -0.122174    0.013951
N    -0.208517   -1.338399    0.104325    0.179319   -0.027209   -0.002480
C    -1.291217   -0.636025    0.080539   -0.076160    0.182027   -0.011817
N    -1.014813    0.810060   -0.035784   -0.143899   -0.096704    0.010972
C     0.068194    1.433852   -0.109774    0.372869    0.005873   -0.009845
O    -2.431173   -1.069165    0.142997    0.024793    0.018326   -0.002024
O     0.257078    2.637027   -0.204421   -0.038936    0.023203   -0.000761
H     2.117540   -1.357361    0.048799   -0.579974   -0.572526    0.056496
H    -0.556882   -2.312127    0.190319    0.803896   -0.109280   -0.012236
H    -1.763417    1.508120   -0.069166   -0.373005   -0.404883    0.039740
H     2.528213    0.524528   -0.103545   -0.624396    1.294162   -0.081425
12
* Frequency(24) 1222.3430
C     1.351160    0.513643   -0.073080   -0.070107    0.006049    0.001302
C     1.178518   -0.773969    0.027728   -0.184156   -0.122174    0.013951
N    -0.213588   -1.337629    0.104395    0.179319   -0.027209   -0.002480
C    -1.289063   -0.641174    0.080874   -0.076160    0.182027   -0.011817
N    -1.010743    0.812795   -0.036094   -0.143899   -0.096704    0.010972
C     0.057648    1.433686   -0.109495    0.372869    0.005873   -0.009845
O    -2.431874   -1.069683    0.143054    0.024793    0.018326   -0.002024
O     0.258179    2.636371   -0.204399   -0.038936    0.023203   -0.000761
H     2.133944   -1.341168    0.047201   -0.579974   -0.572526    0.056496
H    -0.579619   -2.309036    0.190666    0.803896   -0.109280   -0.012236
H    -1.752867    1.519572   -0.070290   -0.373005   -0.404883    0.039740
H     2.545873    0.487924   -0.101242   -0.624396    1.294162   -0.081425
12
* Frequency(24) 1222.3430
C     1.350493    0.513701   -0.073068   -0.070107    0.006049    0.001302
C     1.176766   -0.775131    0.027861   -0.184156   -0.122174    0.013951
N    -0.211882   -1.337888    0.104371    0.179319   -0.027209   -0.002480
C    -1.289788   -0.639442    0.080761   -0.076160    0.182027   -0.011817
N    -1.012112    0.811875   -0.035990   -0.143899   -0.096704    0.010972
C     0.061195    1.433742   -0.109589    0.372869    0.005873   -0.009845
O    -2.431638   -1.069509    0.143035    0.024793    0.018326   -0.002024
O     0.257809    2.636592   -0.204407   -0.038936    0.023203   -0.000761
H     2.128426   -1.346615    0.047739   -0.579974   -0.572526    0.056496
H    -0.571970   -2.310076    0.190549    0.803896   -0.109280   -0.012236
H    -1.756416    1.515720   -0.069912   -0.373005   -0.404883    0.039740
H     2.539932    0.500238   -0.102017   -0.624396    1.294162   -0.081425
12
* Frequency(24) 1222.3430
C     1.347248    0.513981   -0.073007   -0.070107    0.006049    0.001302
C     1.168243   -0.780786    0.028506   -0.184156   -0.122174    0.013951
N    -0.203583   -1.339148    0.104257    0.179319   -0.027209   -0.002480
C    -1.293312   -0.631017    0.080214   -0.076160    0.182027   -0.011817
N    -1.018772    0.807400   -0.035482   -0.143899   -0.096704    0.010972
C     0.078452    1.434013   -0.110045    0.372869    0.005873   -0.009845
O    -2.430491   -1.068660    0.142942    0.024793    0.018326   -0.002024
O     0.256007    2.637666   -0.204442   -0.038936    0.023203   -0.000761
H     2.101583   -1.373113    0.050353   -0.579974   -0.572526    0.056496
H    -0.534765   -2.315133    0.189983    0.803896   -0.109280   -0.012236
H    -1.773680    1.496981   -0.068073   -0.373005   -0.404883    0.039740
H     2.511034    0.560134   -0.105785   -0.624396    1.294162   -0.081425
12
* Frequency(24) 1222.3430
C     1.341777    0.514453   -0.072906   -0.070107    0.006049    0.001302
C     1.153872   -0.790319    0.029595   -0.184156   -0.122174    0.013951
N    -0.189590   -1.341271    0.104063    0.179319   -0.027209   -0.002480
C    -1.299256   -0.616813    0.079292   -0.076160    0.182027   -0.011817
N    -1.030001    0.799853   -0.034626   -0.143899   -0.096704    0.010972
C     0.107549    1.434472   -0.110813    0.372869    0.005873   -0.009845
O    -2.428556   -1.067230    0.142784    0.024793    0.018326   -0.002024
O     0.252968    2.639476   -0.204501   -0.038936    0.023203   -0.000761
H     2.056326   -1.417789    0.054762   -0.579974   -0.572526    0.056496
H    -0.472033   -2.323661    0.189028    0.803896   -0.109280   -0.012236
H    -1.802787    1.465386   -0.064972   -0.373005   -0.404883    0.039740
H     2.462310    0.661122   -0.112139   -0.624396    1.294162   -0.081425
12
* Frequency(24) 1222.3430
C     1.334673    0.515066   -0.072774   -0.070107    0.006049    0.001302
C     1.135212   -0.802699    0.031009   -0.184156   -0.122174    0.013951
N    -0.171420   -1.344028    0.103812    0.179319   -0.027209   -0.002480
C    -1.306973   -0.598368    0.078095   -0.076160    0.182027   -0.011817
N    -1.044582    0.790054   -0.033514   -0.143899   -0.096704    0.010972
C     0.145331    1.435067   -0.111810    0.372869    0.005873   -0.009845
O    -2.426044   -1.065373    0.142579    0.024793    0.018326   -0.002024
O     0.249023    2.641827   -0.204579   -0.038936    0.023203   -0.000761
H     1.997557   -1.475803    0.060487   -0.579974   -0.572526    0.056496
H    -0.390575   -2.334734    0.187788    0.803896   -0.109280   -0.012236
H    -1.840583    1.424360   -0.060945   -0.373005   -0.404883    0.039740
H     2.399040    0.792259   -0.120390   -0.624396    1.294162   -0.081425
12
* Frequency(24) 1222.3430
C     1.326706    0.515754   -0.072626   -0.070107    0.006049    0.001302
C     1.114284   -0.816584    0.032594   -0.184156   -0.122174    0.013951
N    -0.151041   -1.347120    0.103530    0.179319   -0.027209   -0.002480
C    -1.315628   -0.577682    0.076752   -0.076160    0.182027   -0.011817
N    -1.060936    0.779065   -0.032267   -0.143899   -0.096704    0.010972
C     0.187706    1.435734   -0.112929    0.372869    0.005873   -0.009845
O    -2.423226   -1.063291    0.142349    0.024793    0.018326   -0.002024
O     0.244598    2.644464   -0.204665   -0.038936    0.023203   -0.000761
H     1.931646   -1.540867    0.066907   -0.579974   -0.572526    0.056496
H    -0.299216   -2.347153    0.186398    0.803896   -0.109280   -0.012236
H    -1.882973    1.378347   -0.056429   -0.373005   -0.404883    0.039740
H     2.328081    0.939334   -0.129643   -0.624396    1.294162   -0.081425
