12
* (null), Energy   -1000.0000000
C     1.326706    0.515754   -0.072626    0.017424    0.053358    0.719921
C     1.114284   -0.816584    0.032594    0.000887    0.003846    0.058107
N    -0.151041   -1.347120    0.103530   -0.020619   -0.058875   -0.791216
C    -1.315628   -0.577682    0.076752   -0.001101   -0.003992   -0.061428
N    -1.060936    0.779065   -0.032267   -0.000871   -0.000122   -0.010385
C     0.187706    1.435734   -0.112929    0.001342    0.005270    0.068935
O    -2.423226   -1.063291    0.142349    0.013065    0.032600    0.444998
O     0.244598    2.644464   -0.204665   -0.008977   -0.027987   -0.374965
H     1.931646   -1.540867    0.066907    0.002698    0.010066    0.146056
H    -0.299216   -2.347153    0.186398   -0.023205   -0.063597   -0.851768
H    -1.882973    1.378347   -0.056429    0.000812    0.004918    0.057470
H     2.328081    0.939334   -0.129643    0.032368    0.098365    1.315398
12
* Frequency(7)  173.3829
C     1.328686    0.521817    0.009189    0.017424    0.053358    0.719921
C     1.114384   -0.816147    0.039198    0.000887    0.003846    0.058107
N    -0.153384   -1.353811    0.013612   -0.020619   -0.058875   -0.791216
C    -1.315753   -0.578135    0.069771   -0.001101   -0.003992   -0.061428
N    -1.061035    0.779051   -0.033447   -0.000871   -0.000122   -0.010385
C     0.187859    1.436333   -0.105095    0.001342    0.005270    0.068935
O    -2.421741   -1.059586    0.192920    0.013065    0.032600    0.444998
O     0.243578    2.641284   -0.247278   -0.008977   -0.027987   -0.374965
H     1.931953   -1.539724    0.083506    0.002698    0.010066    0.146056
H    -0.301853   -2.354381    0.089599   -0.023205   -0.063597   -0.851768
H    -1.882881    1.378906   -0.049898    0.000812    0.004918    0.057470
H     2.331759    0.950513    0.019845    0.032368    0.098365    1.315398
12
* Frequency(7)  173.3829
C     1.330452    0.527224    0.082139    0.017424    0.053358    0.719921
C     1.114474   -0.815757    0.045086    0.000887    0.003846    0.058107
N    -0.155474   -1.359777   -0.066562   -0.020619   -0.058875   -0.791216
C    -1.315865   -0.578540    0.063547   -0.001101   -0.003992   -0.061428
N    -1.061123    0.779038   -0.034500   -0.000871   -0.000122   -0.010385
C     0.187995    1.436867   -0.098110    0.001342    0.005270    0.068935
O    -2.420417   -1.056283    0.238012    0.013065    0.032600    0.444998
O     0.242668    2.638448   -0.285273   -0.008977   -0.027987   -0.374965
H     1.932226   -1.538704    0.098306    0.002698    0.010066    0.146056
H    -0.304205   -2.360825    0.003289   -0.023205   -0.063597   -0.851768
H    -1.882799    1.379404   -0.044074    0.000812    0.004918    0.057470
H     2.335039    0.960480    0.153134    0.032368    0.098365    1.315398
12
* Frequency(7)  173.3829
C     1.331811    0.531388    0.138317    0.017424    0.053358    0.719921
C     1.114543   -0.815457    0.049620    0.000887    0.003846    0.058107
N    -0.157083   -1.364371   -0.128303   -0.020619   -0.058875   -0.791216
C    -1.315951   -0.578851    0.058753   -0.001101   -0.003992   -0.061428
N    -1.061191    0.779029   -0.035310   -0.000871   -0.000122   -0.010385
C     0.188099    1.437278   -0.092731    0.001342    0.005270    0.068935
O    -2.419398   -1.053739    0.272737    0.013065    0.032600    0.444998
O     0.241968    2.636264   -0.314533   -0.008977   -0.027987   -0.374965
H     1.932437   -1.537918    0.109703    0.002698    0.010066    0.146056
H    -0.306016   -2.365788   -0.063177   -0.023205   -0.063597   -0.851768
H    -1.882735    1.379788   -0.039590    0.000812    0.004918    0.057470
H     2.337565    0.968156    0.255779    0.032368    0.098365    1.315398
12
* Frequency(7)  173.3829
C     1.332618    0.533858    0.171636    0.017424    0.053358    0.719921
C     1.114585   -0.815279    0.052309    0.000887    0.003846    0.058107
N    -0.158037   -1.367096   -0.164922   -0.020619   -0.058875   -0.791216
C    -1.316002   -0.579036    0.055910   -0.001101   -0.003992   -0.061428
N    -1.061231    0.779023   -0.035791   -0.000871   -0.000122   -0.010385
C     0.188161    1.437522   -0.089540    0.001342    0.005270    0.068935
O    -2.418793   -1.052230    0.293332    0.013065    0.032600    0.444998
O     0.241552    2.634968   -0.331887   -0.008977   -0.027987   -0.374965
H     1.932562   -1.537452    0.116463    0.002698    0.010066    0.146056
H    -0.307090   -2.368731   -0.102599   -0.023205   -0.063597   -0.851768
H    -1.882698    1.380016   -0.036930    0.000812    0.004918    0.057470
H     2.339063    0.972708    0.316658    0.032368    0.098365    1.315398
12
* Frequency(7)  173.3829
C     1.332783    0.534365    0.178486    0.017424    0.053358    0.719921
C     1.114593   -0.815242    0.052862    0.000887    0.003846    0.058107
N    -0.158233   -1.367656   -0.172450   -0.020619   -0.058875   -0.791216
C    -1.316012   -0.579074    0.055326   -0.001101   -0.003992   -0.061428
N    -1.061239    0.779022   -0.035889   -0.000871   -0.000122   -0.010385
C     0.188174    1.437572   -0.088884    0.001342    0.005270    0.068935
O    -2.418669   -1.051920    0.297566    0.013065    0.032600    0.444998
O     0.241467    2.634702   -0.335454   -0.008977   -0.027987   -0.374965
H     1.932587   -1.537357    0.117852    0.002698    0.010066    0.146056
H    -0.307310   -2.369336   -0.110703   -0.023205   -0.063597   -0.851768
H    -1.882690    1.380062   -0.036383    0.000812    0.004918    0.057470
H     2.339371    0.973644    0.329174    0.032368    0.098365    1.315398
12
* Frequency(7)  173.3829
C     1.332291    0.532856    0.158124    0.017424    0.053358    0.719921
C     1.114568   -0.815351    0.051219    0.000887    0.003846    0.058107
N    -0.157650   -1.365991   -0.150071   -0.020619   -0.058875   -0.791216
C    -1.315981   -0.578961    0.057063   -0.001101   -0.003992   -0.061428
N    -1.061215    0.779025   -0.035596   -0.000871   -0.000122   -0.010385
C     0.188136    1.437423   -0.090834    0.001342    0.005270    0.068935
O    -2.419038   -1.052842    0.284980    0.013065    0.032600    0.444998
O     0.241721    2.635494   -0.324849   -0.008977   -0.027987   -0.374965
H     1.932511   -1.537641    0.113721    0.002698    0.010066    0.146056
H    -0.306654   -2.367537   -0.086612   -0.023205   -0.063597   -0.851768
H    -1.882713    1.379923   -0.038008    0.000812    0.004918    0.057470
H     2.338455    0.970862    0.291969    0.032368    0.098365    1.315398
12
* Frequency(7)  173.3829
C     1.331193    0.529494    0.112756    0.017424    0.053358    0.719921
C     1.114512   -0.815593    0.047557    0.000887    0.003846    0.058107
N    -0.156351   -1.362281   -0.100211   -0.020619   -0.058875   -0.791216
C    -1.315912   -0.578710    0.060934   -0.001101   -0.003992   -0.061428
N    -1.061160    0.779033   -0.034941   -0.000871   -0.000122   -0.010385
C     0.188052    1.437091   -0.095178    0.001342    0.005270    0.068935
O    -2.419862   -1.054896    0.256937    0.013065    0.032600    0.444998
O     0.242286    2.637257   -0.301220   -0.008977   -0.027987   -0.374965
H     1.932341   -1.538276    0.104517    0.002698    0.010066    0.146056
H    -0.305192   -2.363530   -0.032936   -0.023205   -0.063597   -0.851768
H    -1.882764    1.379613   -0.041630    0.000812    0.004918    0.057470
H     2.336416    0.964663    0.209076    0.032368    0.098365    1.315398
12
* Frequency(7)  173.3829
C     1.329608    0.524642    0.047300    0.017424    0.053358    0.719921
C     1.114431   -0.815943    0.042274    0.000887    0.003846    0.058107
N    -0.154476   -1.356928   -0.028272   -0.020619   -0.058875   -0.791216
C    -1.315811   -0.578347    0.066519   -0.001101   -0.003992   -0.061428
N    -1.061081    0.779044   -0.033997   -0.000871   -0.000122   -0.010385
C     0.187930    1.436612   -0.101446    0.001342    0.005270    0.068935
O    -2.421050   -1.057860    0.216477    0.013065    0.032600    0.444998
O     0.243103    2.639802   -0.267127   -0.008977   -0.027987   -0.374965
H     1.932096   -1.539191    0.091237    0.002698    0.010066    0.146056
H    -0.303082   -2.357747    0.044509   -0.023205   -0.063597   -0.851768
H    -1.882838    1.379166   -0.046855    0.000812    0.004918    0.057470
H     2.333473    0.955720    0.089478    0.032368    0.098365    1.315398
12
* Frequency(7)  173.3829
C     1.327710    0.518827   -0.031153    0.017424    0.053358    0.719921
C     1.114335   -0.816362    0.035942    0.000887    0.003846    0.058107
N    -0.152229   -1.350512    0.057949   -0.020619   -0.058875   -0.791216
C    -1.315692   -0.577912    0.073213   -0.001101   -0.003992   -0.061428
N    -1.060986    0.779058   -0.032865   -0.000871   -0.000122   -0.010385
C     0.187783    1.436038   -0.108958    0.001342    0.005270    0.068935
O    -2.422473   -1.061413    0.167984    0.013065    0.032600    0.444998
O     0.244081    2.642852   -0.226266   -0.008977   -0.027987   -0.374965
H     1.931802   -1.540288    0.075321    0.002698    0.010066    0.146056
H    -0.300553   -2.350817    0.137329   -0.023205   -0.063597   -0.851768
H    -1.882926    1.378630   -0.053118    0.000812    0.004918    0.057470
H     2.329945    0.945001   -0.053866    0.032368    0.098365    1.315398
12
* Frequency(7)  173.3829
C     1.325702    0.512680   -0.114099    0.017424    0.053358    0.719921
C     1.114232   -0.816805    0.029247    0.000887    0.003846    0.058107
N    -0.149854   -1.343728    0.149110   -0.020619   -0.058875   -0.791216
C    -1.315565   -0.577452    0.080291   -0.001101   -0.003992   -0.061428
N    -1.060886    0.779072   -0.031669   -0.000871   -0.000122   -0.010385
C     0.187629    1.435430   -0.116901    0.001342    0.005270    0.068935
O    -2.423979   -1.065169    0.116713    0.013065    0.032600    0.444998
O     0.245115    2.646077   -0.183064   -0.008977   -0.027987   -0.374965
H     1.931491   -1.541447    0.058493    0.002698    0.010066    0.146056
H    -0.297879   -2.343490    0.235466   -0.023205   -0.063597   -0.851768
H    -1.883020    1.378063   -0.059740    0.000812    0.004918    0.057470
H     2.326216    0.933667   -0.205421    0.032368    0.098365    1.315398
12
* Frequency(7)  173.3829
C     1.323803    0.506865   -0.192552    0.017424    0.053358    0.719921
C     1.114136   -0.817224    0.022915    0.000887    0.003846    0.058107
N    -0.147607   -1.337312    0.235332   -0.020619   -0.058875   -0.791216
C    -1.315445   -0.577017    0.086985   -0.001101   -0.003992   -0.061428
N    -1.060791    0.779085   -0.030537   -0.000871   -0.000122   -0.010385
C     0.187483    1.434856   -0.124413    0.001342    0.005270    0.068935
O    -2.425402   -1.068721    0.068220    0.013065    0.032600    0.444998
O     0.246094    2.649126   -0.142203   -0.008977   -0.027987   -0.374965
H     1.931197   -1.542544    0.042577    0.002698    0.010066    0.146056
H    -0.295351   -2.336559    0.328287   -0.023205   -0.063597   -0.851768
H    -1.883108    1.377527   -0.066002    0.000812    0.004918    0.057470
H     2.322689    0.922948   -0.348764    0.032368    0.098365    1.315398
12
* Frequency(7)  173.3829
C     1.322219    0.502014   -0.258008    0.017424    0.053358    0.719921
C     1.114055   -0.817574    0.017632    0.000887    0.003846    0.058107
N    -0.145732   -1.331959    0.307271   -0.020619   -0.058875   -0.791216
C    -1.315345   -0.576654    0.092570   -0.001101   -0.003992   -0.061428
N    -1.060711    0.779096   -0.029593   -0.000871   -0.000122   -0.010385
C     0.187361    1.434377   -0.130680    0.001342    0.005270    0.068935
O    -2.426590   -1.071685    0.027760    0.013065    0.032600    0.444998
O     0.246910    2.651671   -0.108110   -0.008977   -0.027987   -0.374965
H     1.930951   -1.543459    0.029297    0.002698    0.010066    0.146056
H    -0.293241   -2.330777    0.405731   -0.023205   -0.063597   -0.851768
H    -1.883182    1.377080   -0.071228    0.000812    0.004918    0.057470
H     2.319746    0.914005   -0.468363    0.032368    0.098365    1.315398
12
* Frequency(7)  173.3829
C     1.321121    0.498651   -0.303376    0.017424    0.053358    0.719921
C     1.113999   -0.817816    0.013970    0.000887    0.003846    0.058107
N    -0.144433   -1.328249    0.357131   -0.020619   -0.058875   -0.791216
C    -1.315275   -0.576402    0.096441   -0.001101   -0.003992   -0.061428
N    -1.060657    0.779104   -0.028939   -0.000871   -0.000122   -0.010385
C     0.187276    1.434045   -0.135024    0.001342    0.005270    0.068935
O    -2.427414   -1.073740   -0.000283    0.013065    0.032600    0.444998
O     0.247476    2.653435   -0.084481   -0.008977   -0.027987   -0.374965
H     1.930781   -1.544094    0.020093    0.002698    0.010066    0.146056
H    -0.291778   -2.326769    0.459407   -0.023205   -0.063597   -0.851768
H    -1.883234    1.376770   -0.074849    0.000812    0.004918    0.057470
H     2.317706    0.907806   -0.551256    0.032368    0.098365    1.315398
12
* Frequency(7)  173.3829
C     1.320629    0.497142   -0.323738    0.017424    0.053358    0.719921
C     1.113974   -0.817925    0.012326    0.000887    0.003846    0.058107
N    -0.143849   -1.326584    0.379510   -0.020619   -0.058875   -0.791216
C    -1.315244   -0.576290    0.098178   -0.001101   -0.003992   -0.061428
N    -1.060632    0.779107   -0.028645   -0.000871   -0.000122   -0.010385
C     0.187238    1.433896   -0.136974    0.001342    0.005270    0.068935
O    -2.427783   -1.074662   -0.012869    0.013065    0.032600    0.444998
O     0.247729    2.654226   -0.073876   -0.008977   -0.027987   -0.374965
H     1.930705   -1.544378    0.015962    0.002698    0.010066    0.146056
H    -0.291122   -2.324971    0.483498   -0.023205   -0.063597   -0.851768
H    -1.883257    1.376631   -0.076475    0.000812    0.004918    0.057470
H     2.316791    0.905024   -0.588460    0.032368    0.098365    1.315398
12
* Frequency(7)  173.3829
C     1.320794    0.497650   -0.316888    0.017424    0.053358    0.719921
C     1.113982   -0.817888    0.012879    0.000887    0.003846    0.058107
N    -0.144046   -1.327144    0.371982   -0.020619   -0.058875   -0.791216
C    -1.315255   -0.576327    0.097594   -0.001101   -0.003992   -0.061428
N    -1.060640    0.779106   -0.028744   -0.000871   -0.000122   -0.010385
C     0.187251    1.433946   -0.136318    0.001342    0.005270    0.068935
O    -2.427659   -1.074352   -0.008635    0.013065    0.032600    0.444998
O     0.247644    2.653960   -0.077443   -0.008977   -0.027987   -0.374965
H     1.930731   -1.544283    0.017352    0.002698    0.010066    0.146056
H    -0.291343   -2.325576    0.475394   -0.023205   -0.063597   -0.851768
H    -1.883249    1.376678   -0.075928    0.000812    0.004918    0.057470
H     2.317099    0.905960   -0.575945    0.032368    0.098365    1.315398
12
* Frequency(7)  173.3829
C     1.321601    0.500119   -0.283569    0.017424    0.053358    0.719921
C     1.114024   -0.817710    0.015569    0.000887    0.003846    0.058107
N    -0.145000   -1.329869    0.335363   -0.020619   -0.058875   -0.791216
C    -1.315306   -0.576512    0.094751   -0.001101   -0.003992   -0.061428
N    -1.060681    0.779100   -0.029224   -0.000871   -0.000122   -0.010385
C     0.187313    1.434190   -0.133128    0.001342    0.005270    0.068935
O    -2.427054   -1.072843    0.011960    0.013065    0.032600    0.444998
O     0.247229    2.652665   -0.094797   -0.008977   -0.027987   -0.374965
H     1.930855   -1.543817    0.024112    0.002698    0.010066    0.146056
H    -0.292417   -2.328519    0.435973   -0.023205   -0.063597   -0.851768
H    -1.883211    1.376906   -0.073268    0.000812    0.004918    0.057470
H     2.318597    0.910512   -0.515066    0.032368    0.098365    1.315398
12
* Frequency(7)  173.3829
C     1.322960    0.504283   -0.227391    0.017424    0.053358    0.719921
C     1.114093   -0.817410    0.020103    0.000887    0.003846    0.058107
N    -0.146609   -1.334463    0.273621   -0.020619   -0.058875   -0.791216
C    -1.315391   -0.576824    0.089957   -0.001101   -0.003992   -0.061428
N    -1.060748    0.779091   -0.030035   -0.000871   -0.000122   -0.010385
C     0.187418    1.434601   -0.127749    0.001342    0.005270    0.068935
O    -2.426035   -1.070299    0.046685    0.013065    0.032600    0.444998
O     0.246528    2.650481   -0.124057   -0.008977   -0.027987   -0.374965
H     1.931066   -1.543031    0.035509    0.002698    0.010066    0.146056
H    -0.294228   -2.333482    0.369506   -0.023205   -0.063597   -0.851768
H    -1.883148    1.377289   -0.068783    0.000812    0.004918    0.057470
H     2.321123    0.918188   -0.412420    0.032368    0.098365    1.315398
12
* Frequency(7)  173.3829
C     1.324726    0.509690   -0.154441    0.017424    0.053358    0.719921
C     1.114183   -0.817021    0.025991    0.000887    0.003846    0.058107
N    -0.148698   -1.340429    0.193447   -0.020619   -0.058875   -0.791216
C    -1.315503   -0.577228    0.083733   -0.001101   -0.003992   -0.061428
N    -1.060837    0.779078   -0.031087   -0.000871   -0.000122   -0.010385
C     0.187554    1.435135   -0.120763    0.001342    0.005270    0.068935
O    -2.424711   -1.066996    0.091777    0.013065    0.032600    0.444998
O     0.245618    2.647645   -0.162052   -0.008977   -0.027987   -0.374965
H     1.931339   -1.542011    0.050309    0.002698    0.010066    0.146056
H    -0.296579   -2.339926    0.283197   -0.023205   -0.063597   -0.851768
H    -1.883065    1.377788   -0.062960    0.000812    0.004918    0.057470
H     2.324402    0.928155   -0.279131    0.032368    0.098365    1.315398
12
* Frequency(7)  173.3829
C     1.326706    0.515754   -0.072626    0.017424    0.053358    0.719921
C     1.114284   -0.816584    0.032594    0.000887    0.003846    0.058107
N    -0.151041   -1.347120    0.103530   -0.020619   -0.058875   -0.791216
C    -1.315628   -0.577682    0.076752   -0.001101   -0.003992   -0.061428
N    -1.060936    0.779065   -0.032267   -0.000871   -0.000122   -0.010385
C     0.187706    1.435734   -0.112929    0.001342    0.005270    0.068935
O    -2.423226   -1.063291    0.142349    0.013065    0.032600    0.444998
O     0.244598    2.644464   -0.204665   -0.008977   -0.027987   -0.374965
H     1.931646   -1.540867    0.066907    0.002698    0.010066    0.146056
H    -0.299216   -2.347153    0.186398   -0.023205   -0.063597   -0.851768
H    -1.882973    1.378347   -0.056429    0.000812    0.004918    0.057470
H     2.328081    0.939334   -0.129643    0.032368    0.098365    1.315398
