12
* (null), Energy   -1000.0000000
C     1.629965    0.315610   -0.065301   -0.354732    0.051239    0.006352
C     1.417359   -1.016714    0.040627    0.120942   -0.009290   -0.004356
N     0.152106   -1.547217    0.113051    0.124462   -0.209150    0.012685
C    -1.012934   -0.778188    0.084369   -0.191392    0.120956   -0.003879
N    -0.757957    0.578797   -0.024165    0.268733    0.274815   -0.027716
C     0.490659    1.235340   -0.105671    0.121017   -0.099994    0.004868
O    -2.120393   -1.263598    0.148925   -0.129781   -0.131347    0.013109
O     0.547838    2.444022   -0.198224   -0.059186   -0.097485    0.008810
H     2.234675   -1.741152    0.074482    0.638855    0.568461   -0.046367
H     0.004476   -2.547394    0.191756    0.158417   -0.225720    0.012323
H    -1.579890    1.178069   -0.048486    0.914546    1.158332   -0.111604
H     2.631499    0.738614   -0.122607   -0.551982    0.468862   -0.028958
12
* Frequency(19)  970.2787
C     1.589652    0.321433   -0.064579   -0.354732    0.051239    0.006352
C     1.431103   -1.017770    0.040132    0.120942   -0.009290   -0.004356
N     0.166251   -1.570986    0.114493    0.124462   -0.209150    0.012685
C    -1.034685   -0.764442    0.083929   -0.191392    0.120956   -0.003879
N    -0.727417    0.610028   -0.027315    0.268733    0.274815   -0.027716
C     0.504412    1.223976   -0.105118    0.121017   -0.099994    0.004868
O    -2.135142   -1.278525    0.150415   -0.129781   -0.131347    0.013109
O     0.541112    2.432943   -0.197222   -0.059186   -0.097485    0.008810
H     2.307277   -1.676549    0.069212    0.638855    0.568461   -0.046367
H     0.022480   -2.573046    0.193156    0.158417   -0.225720    0.012323
H    -1.475956    1.309707   -0.061169    0.914546    1.158332   -0.111604
H     2.568769    0.791898   -0.125898   -0.551982    0.468862   -0.028958
12
* Frequency(19)  970.2787
C     1.553707    0.326625   -0.063935   -0.354732    0.051239    0.006352
C     1.443359   -1.018711    0.039691    0.120942   -0.009290   -0.004356
N     0.178862   -1.592179    0.115778    0.124462   -0.209150    0.012685
C    -1.054078   -0.752185    0.083536   -0.191392    0.120956   -0.003879
N    -0.700186    0.637875   -0.030123    0.268733    0.274815   -0.027716
C     0.516674    1.213844   -0.104624    0.121017   -0.099994    0.004868
O    -2.148292   -1.291834    0.151743   -0.129781   -0.131347    0.013109
O     0.535115    2.423065   -0.196330   -0.059186   -0.097485    0.008810
H     2.372012   -1.618947    0.064514    0.638855    0.568461   -0.046367
H     0.038532   -2.595918    0.194405    0.158417   -0.225720    0.012323
H    -1.383286    1.427080   -0.072477    0.914546    1.158332   -0.111604
H     2.512837    0.839408   -0.128832   -0.551982    0.468862   -0.028958
12
* Frequency(19)  970.2787
C     1.526026    0.330623   -0.063440   -0.354732    0.051239    0.006352
C     1.452796   -1.019436    0.039351    0.120942   -0.009290   -0.004356
N     0.188575   -1.608500    0.116768    0.124462   -0.209150    0.012685
C    -1.069014   -0.742747    0.083233   -0.191392    0.120956   -0.003879
N    -0.679216    0.659320   -0.032286    0.268733    0.274815   -0.027716
C     0.526118    1.206041   -0.104244    0.121017   -0.099994    0.004868
O    -2.158420   -1.302083    0.152766   -0.129781   -0.131347    0.013109
O     0.530497    2.415458   -0.195642   -0.059186   -0.097485    0.008810
H     2.421865   -1.574588    0.060896    0.638855    0.568461   -0.046367
H     0.050894   -2.613532    0.195366    0.158417   -0.225720    0.012323
H    -1.311920    1.517469   -0.081186    0.914546    1.158332   -0.111604
H     2.469764    0.875995   -0.131092   -0.551982    0.468862   -0.028958
12
* Frequency(19)  970.2787
C     1.509608    0.332995   -0.063146   -0.354732    0.051239    0.006352
C     1.458394   -1.019866    0.039149    0.120942   -0.009290   -0.004356
N     0.194335   -1.618180    0.117355    0.124462   -0.209150    0.012685
C    -1.077871   -0.737149    0.083053   -0.191392    0.120956   -0.003879
N    -0.666778    0.672039   -0.033568    0.268733    0.274815   -0.027716
C     0.531718    1.201413   -0.104019    0.121017   -0.099994    0.004868
O    -2.164426   -1.308162    0.153372   -0.129781   -0.131347    0.013109
O     0.527757    2.410946   -0.195235   -0.059186   -0.097485    0.008810
H     2.451432   -1.548278    0.058750    0.638855    0.568461   -0.046367
H     0.058226   -2.623979    0.195937    0.158417   -0.225720    0.012323
H    -1.269593    1.571079   -0.086352    0.914546    1.158332   -0.111604
H     2.444217    0.897694   -0.132432   -0.551982    0.468862   -0.028958
12
* Frequency(19)  970.2787
C     1.506233    0.333482   -0.063085   -0.354732    0.051239    0.006352
C     1.459544   -1.019955    0.039108    0.120942   -0.009290   -0.004356
N     0.195519   -1.620170    0.117476    0.124462   -0.209150    0.012685
C    -1.079692   -0.735998    0.083016   -0.191392    0.120956   -0.003879
N    -0.664221    0.674654   -0.033832    0.268733    0.274815   -0.027716
C     0.532870    1.200462   -0.103973    0.121017   -0.099994    0.004868
O    -2.165661   -1.309412    0.153497   -0.129781   -0.131347    0.013109
O     0.527194    2.410019   -0.195151   -0.059186   -0.097485    0.008810
H     2.457510   -1.542870    0.058309    0.638855    0.568461   -0.046367
H     0.059733   -2.626126    0.196054    0.158417   -0.225720    0.012323
H    -1.260892    1.582100   -0.087413    0.914546    1.158332   -0.111604
H     2.438965    0.902155   -0.132708   -0.551982    0.468862   -0.028958
12
* Frequency(19)  970.2787
C     1.516266    0.332033   -0.063265   -0.354732    0.051239    0.006352
C     1.456124   -1.019692    0.039231    0.120942   -0.009290   -0.004356
N     0.191999   -1.614254    0.117117    0.124462   -0.209150    0.012685
C    -1.074279   -0.739419    0.083126   -0.191392    0.120956   -0.003879
N    -0.671822    0.666881   -0.033048    0.268733    0.274815   -0.027716
C     0.529447    1.203290   -0.104110    0.121017   -0.099994    0.004868
O    -2.161990   -1.305697    0.153126   -0.129781   -0.131347    0.013109
O     0.528868    2.412776   -0.195400   -0.059186   -0.097485    0.008810
H     2.439441   -1.558948    0.059620    0.638855    0.568461   -0.046367
H     0.055252   -2.619742    0.195705    0.158417   -0.225720    0.012323
H    -1.286759    1.549338   -0.084257    0.914546    1.158332   -0.111604
H     2.454577    0.888894   -0.131889   -0.551982    0.468862   -0.028958
12
* Frequency(19)  970.2787
C     1.538620    0.328804   -0.063665   -0.354732    0.051239    0.006352
C     1.448502   -1.019107    0.039505    0.120942   -0.009290   -0.004356
N     0.184156   -1.601074    0.116318    0.124462   -0.209150    0.012685
C    -1.062218   -0.747041    0.083371   -0.191392    0.120956   -0.003879
N    -0.688757    0.649563   -0.031302    0.268733    0.274815   -0.027716
C     0.521821    1.209591   -0.104417    0.121017   -0.099994    0.004868
O    -2.153812   -1.297420    0.152300   -0.129781   -0.131347    0.013109
O     0.532598    2.418919   -0.195955   -0.059186   -0.097485    0.008810
H     2.399182   -1.594771    0.062542    0.638855    0.568461   -0.046367
H     0.045269   -2.605518    0.194929    0.158417   -0.225720    0.012323
H    -1.344391    1.476343   -0.077224    0.914546    1.158332   -0.111604
H     2.489362    0.859348   -0.130064   -0.551982    0.468862   -0.028958
12
* Frequency(19)  970.2787
C     1.570873    0.324145   -0.064243   -0.354732    0.051239    0.006352
C     1.437506   -1.018262    0.039901    0.120942   -0.009290   -0.004356
N     0.172839   -1.582058    0.115165    0.124462   -0.209150    0.012685
C    -1.044817   -0.758039    0.083723   -0.191392    0.120956   -0.003879
N    -0.713191    0.624576   -0.028782    0.268733    0.274815   -0.027716
C     0.510818    1.218683   -0.104860    0.121017   -0.099994    0.004868
O    -2.142012   -1.285478    0.151108   -0.129781   -0.131347    0.013109
O     0.537979    2.427783   -0.196756   -0.059186   -0.097485    0.008810
H     2.341096   -1.646456    0.066758    0.638855    0.568461   -0.046367
H     0.030866   -2.584995    0.193808    0.158417   -0.225720    0.012323
H    -1.427543    1.371025   -0.067077    0.914546    1.158332   -0.111604
H     2.539549    0.816718   -0.127431   -0.551982    0.468862   -0.028958
12
* Frequency(19)  970.2787
C     1.609530    0.318562   -0.064935   -0.354732    0.051239    0.006352
C     1.424326   -1.017249    0.040376    0.120942   -0.009290   -0.004356
N     0.159276   -1.559266    0.113782    0.124462   -0.209150    0.012685
C    -1.023960   -0.771220    0.084146   -0.191392    0.120956   -0.003879
N    -0.742475    0.594629   -0.025761    0.268733    0.274815   -0.027716
C     0.497630    1.229579   -0.105390    0.121017   -0.099994    0.004868
O    -2.127869   -1.271164    0.149680   -0.129781   -0.131347    0.013109
O     0.544429    2.438406   -0.197716   -0.059186   -0.097485    0.008810
H     2.271478   -1.708404    0.071810    0.638855    0.568461   -0.046367
H     0.013603   -2.560398    0.192466    0.158417   -0.225720    0.012323
H    -1.527204    1.244798   -0.054915    0.914546    1.158332   -0.111604
H     2.599700    0.765624   -0.124275   -0.551982    0.468862   -0.028958
12
* Frequency(19)  970.2787
C     1.650400    0.312658   -0.065667   -0.354732    0.051239    0.006352
C     1.410392   -1.016179    0.040878    0.120942   -0.009290   -0.004356
N     0.144936   -1.535168    0.112321    0.124462   -0.209150    0.012685
C    -1.001908   -0.785156    0.084593   -0.191392    0.120956   -0.003879
N    -0.773438    0.562965   -0.022568    0.268733    0.274815   -0.027716
C     0.483687    1.241100   -0.105951    0.121017   -0.099994    0.004868
O    -2.112916   -1.256031    0.148170   -0.129781   -0.131347    0.013109
O     0.551248    2.449638   -0.198731   -0.059186   -0.097485    0.008810
H     2.197872   -1.773900    0.077153    0.638855    0.568461   -0.046367
H    -0.004650   -2.534391    0.191046    0.158417   -0.225720    0.012323
H    -1.632575    1.111339   -0.042056    0.914546    1.158332   -0.111604
H     2.663298    0.711604   -0.120939   -0.551982    0.468862   -0.028958
12
* Frequency(19)  970.2787
C     1.689057    0.307075   -0.066359   -0.354732    0.051239    0.006352
C     1.397212   -1.015167    0.041353    0.120942   -0.009290   -0.004356
N     0.131373   -1.512376    0.110938    0.124462   -0.209150    0.012685
C    -0.981052   -0.798337    0.085015   -0.191392    0.120956   -0.003879
N    -0.802723    0.533018   -0.019548    0.268733    0.274815   -0.027716
C     0.470499    1.251997   -0.106482    0.121017   -0.099994    0.004868
O    -2.098773   -1.241718    0.146741   -0.129781   -0.131347    0.013109
O     0.557698    2.460261   -0.199691   -0.059186   -0.097485    0.008810
H     2.128253   -1.835847    0.082205    0.638855    0.568461   -0.046367
H    -0.021913   -2.509794    0.189703    0.158417   -0.225720    0.012323
H    -1.732236    0.985112   -0.029894    0.914546    1.158332   -0.111604
H     2.723449    0.660510   -0.117783   -0.551982    0.468862   -0.028958
12
* Frequency(19)  970.2787
C     1.721310    0.302416   -0.066937   -0.354732    0.051239    0.006352
C     1.386216   -1.014322    0.041749    0.120942   -0.009290   -0.004356
N     0.120057   -1.493360    0.109785    0.124462   -0.209150    0.012685
C    -0.963650   -0.809334    0.085368   -0.191392    0.120956   -0.003879
N    -0.827156    0.508031   -0.017028    0.268733    0.274815   -0.027716
C     0.459496    1.261089   -0.106924    0.121017   -0.099994    0.004868
O    -2.086974   -1.229776    0.145549   -0.129781   -0.131347    0.013109
O     0.563079    2.469125   -0.200492   -0.059186   -0.097485    0.008810
H     2.070168   -1.887532    0.086421    0.638855    0.568461   -0.046367
H    -0.036317   -2.489271    0.188583    0.158417   -0.225720    0.012323
H    -1.815388    0.879794   -0.019747    0.914546    1.158332   -0.111604
H     2.773636    0.617881   -0.115150   -0.551982    0.468862   -0.028958
12
* Frequency(19)  970.2787
C     1.743664    0.299187   -0.067337   -0.354732    0.051239    0.006352
C     1.378595   -1.013736    0.042023    0.120942   -0.009290   -0.004356
N     0.112214   -1.480180    0.108985    0.124462   -0.209150    0.012685
C    -0.951589   -0.816957    0.085613   -0.191392    0.120956   -0.003879
N    -0.844091    0.490713   -0.015281    0.268733    0.274815   -0.027716
C     0.451870    1.267390   -0.107231    0.121017   -0.099994    0.004868
O    -2.078795   -1.221499    0.144723   -0.129781   -0.131347    0.013109
O     0.566809    2.475268   -0.201047   -0.059186   -0.097485    0.008810
H     2.029909   -1.923355    0.089343    0.638855    0.568461   -0.046367
H    -0.046300   -2.475047    0.187806    0.158417   -0.225720    0.012323
H    -1.873021    0.806799   -0.012714    0.914546    1.158332   -0.111604
H     2.808421    0.588334   -0.113325   -0.551982    0.468862   -0.028958
12
* Frequency(19)  970.2787
C     1.753697    0.297738   -0.067517   -0.354732    0.051239    0.006352
C     1.375174   -1.013474    0.042146    0.120942   -0.009290   -0.004356
N     0.108693   -1.474264    0.108627    0.124462   -0.209150    0.012685
C    -0.946176   -0.820378    0.085722   -0.191392    0.120956   -0.003879
N    -0.851692    0.482940   -0.014497    0.268733    0.274815   -0.027716
C     0.448447    1.270218   -0.107369    0.121017   -0.099994    0.004868
O    -2.075124   -1.217784    0.144352   -0.129781   -0.131347    0.013109
O     0.568483    2.478025   -0.201296   -0.059186   -0.097485    0.008810
H     2.011839   -1.939433    0.090654    0.638855    0.568461   -0.046367
H    -0.050780   -2.468662    0.187458    0.158417   -0.225720    0.012323
H    -1.898888    0.774037   -0.009558    0.914546    1.158332   -0.111604
H     2.824033    0.575073   -0.112506   -0.551982    0.468862   -0.028958
12
* Frequency(19)  970.2787
C     1.750322    0.298225   -0.067456   -0.354732    0.051239    0.006352
C     1.376324   -1.013562    0.042105    0.120942   -0.009290   -0.004356
N     0.109877   -1.476254    0.108747    0.124462   -0.209150    0.012685
C    -0.947997   -0.819227    0.085685   -0.191392    0.120956   -0.003879
N    -0.849135    0.485555   -0.014761    0.268733    0.274815   -0.027716
C     0.449599    1.269267   -0.107323    0.121017   -0.099994    0.004868
O    -2.076359   -1.219033    0.144477   -0.129781   -0.131347    0.013109
O     0.567920    2.477098   -0.201213   -0.059186   -0.097485    0.008810
H     2.017918   -1.934025    0.090213    0.638855    0.568461   -0.046367
H    -0.049273   -2.470810    0.187575    0.158417   -0.225720    0.012323
H    -1.890186    0.785058   -0.010619    0.914546    1.158332   -0.111604
H     2.818781    0.579534   -0.112782   -0.551982    0.468862   -0.028958
12
* Frequency(19)  970.2787
C     1.733904    0.300597   -0.067162   -0.354732    0.051239    0.006352
C     1.381922   -1.013992    0.041903    0.120942   -0.009290   -0.004356
N     0.115638   -1.485934    0.109334    0.124462   -0.209150    0.012685
C    -0.956855   -0.813629    0.085506   -0.191392    0.120956   -0.003879
N    -0.836698    0.498274   -0.016044    0.268733    0.274815   -0.027716
C     0.455200    1.264639   -0.107097    0.121017   -0.099994    0.004868
O    -2.082366   -1.225112    0.145084   -0.129781   -0.131347    0.013109
O     0.565180    2.472586   -0.200805   -0.059186   -0.097485    0.008810
H     2.047485   -1.907715    0.088067    0.638855    0.568461   -0.046367
H    -0.041941   -2.481257    0.188145    0.158417   -0.225720    0.012323
H    -1.847859    0.838668   -0.015785    0.914546    1.158332   -0.111604
H     2.793235    0.601234   -0.114122   -0.551982    0.468862   -0.028958
12
* Frequency(19)  970.2787
C     1.706223    0.304595   -0.066666   -0.354732    0.051239    0.006352
C     1.391360   -1.014717    0.041563    0.120942   -0.009290   -0.004356
N     0.125350   -1.502255    0.110324    0.124462   -0.209150    0.012685
C    -0.971790   -0.804190    0.085203   -0.191392    0.120956   -0.003879
N    -0.815727    0.519719   -0.018207    0.268733    0.274815   -0.027716
C     0.464643    1.256836   -0.106717    0.121017   -0.099994    0.004868
O    -2.092493   -1.235362    0.146107   -0.129781   -0.131347    0.013109
O     0.560562    2.464979   -0.200117   -0.059186   -0.097485    0.008810
H     2.097337   -1.863356    0.084449    0.638855    0.568461   -0.046367
H    -0.029579   -2.498870    0.189107    0.158417   -0.225720    0.012323
H    -1.776494    0.929057   -0.024494    0.914546    1.158332   -0.111604
H     2.750161    0.637821   -0.116382   -0.551982    0.468862   -0.028958
12
* Frequency(19)  970.2787
C     1.670278    0.309787   -0.066023   -0.354732    0.051239    0.006352
C     1.403615   -1.015658    0.041122    0.120942   -0.009290   -0.004356
N     0.137962   -1.523448    0.111610    0.124462   -0.209150    0.012685
C    -0.991184   -0.791934    0.084810   -0.191392    0.120956   -0.003879
N    -0.788497    0.547566   -0.021015    0.268733    0.274815   -0.027716
C     0.476906    1.246704   -0.106224    0.121017   -0.099994    0.004868
O    -2.105644   -1.248671    0.147435   -0.129781   -0.131347    0.013109
O     0.554565    2.455101   -0.199225   -0.059186   -0.097485    0.008810
H     2.162072   -1.805754    0.079751    0.638855    0.568461   -0.046367
H    -0.013527   -2.521742    0.190355    0.158417   -0.225720    0.012323
H    -1.683823    1.046430   -0.035802    0.914546    1.158332   -0.111604
H     2.694229    0.685330   -0.119316   -0.551982    0.468862   -0.028958
12
* Frequency(19)  970.2787
C     1.629965    0.315610   -0.065301   -0.354732    0.051239    0.006352
C     1.417359   -1.016714    0.040627    0.120942   -0.009290   -0.004356
N     0.152106   -1.547217    0.113051    0.124462   -0.209150    0.012685
C    -1.012934   -0.778188    0.084369   -0.191392    0.120956   -0.003879
N    -0.757957    0.578797   -0.024165    0.268733    0.274815   -0.027716
C     0.490659    1.235340   -0.105671    0.121017   -0.099994    0.004868
O    -2.120393   -1.263598    0.148925   -0.129781   -0.131347    0.013109
O     0.547838    2.444022   -0.198224   -0.059186   -0.097485    0.008810
H     2.234675   -1.741152    0.074482    0.638855    0.568461   -0.046367
H     0.004476   -2.547394    0.191756    0.158417   -0.225720    0.012323
H    -1.579890    1.178069   -0.048486    0.914546    1.158332   -0.111604
H     2.631499    0.738614   -0.122607   -0.551982    0.468862   -0.028958
