
                                 *****************
                                 * O   R   C   A *
                                 *****************

           --- An Ab Initio, DFT and Semiempirical electronic structure package ---

                  #######################################################
                  #                        -***-                        #
                  #          Department of theory and spectroscopy      #
                  #               Directorship: Frank Neese             #
                  #        Max Planck Institute fuer Kohlenforschung    #
                  #                Kaiser Wilhelm Platz 1               #
                  #                 D-45470 Muelheim/Ruhr               #
                  #                      Germany                        #
                  #                                                     #
                  #                  All rights reserved                #
                  #                        -***-                        #
                  #######################################################


                         Program Version 4.2.1 -  RELEASE  -


 With contributions from (in alphabetic order):
   Daniel Aravena         : Magnetic Suceptibility
   Michael Atanasov       : Ab Initio Ligand Field Theory (pilot matlab implementation)
   Alexander A. Auer      : GIAO ZORA, VPT2
   Ute Becker             : Parallelization
   Giovanni Bistoni       : ED, misc. LED, open-shell LED, HFLD
   Martin Brehm           : Molecular dynamics
   Dmytro Bykov           : SCF Hessian
   Vijay G. Chilkuri      : MRCI spin determinant printing, contributions to CSF-ICE
   Dipayan Datta          : RHF DLPNO-CCSD density
   Achintya Kumar Dutta   : EOM-CC, STEOM-CC
   Dmitry Ganyushin       : Spin-Orbit,Spin-Spin,Magnetic field MRCI
   Miquel Garcia          : C-PCM Hessian, Gaussian charge scheme
   Yang Guo               : DLPNO-NEVPT2, CIM, IAO-localization
   Andreas Hansen         : Spin unrestricted coupled pair/coupled cluster methods
   Benjamin Helmich-Paris : CASSCF linear response (MC-RPA)
   Lee Huntington         : MR-EOM, pCC
   Robert Izsak           : Overlap fitted RIJCOSX, COSX-SCS-MP3, EOM
   Christian Kollmar      : KDIIS, OOCD, Brueckner-CCSD(T), CCSD density
   Simone Kossmann        : Meta GGA functionals, TD-DFT gradient, OOMP2, MP2 Hessian
   Martin Krupicka        : AUTO-CI
   Lucas Lang             : DCDCAS
   Dagmar Lenk            : GEPOL surface, SMD
   Dimitrios Liakos       : Extrapolation schemes; Compound Job, initial MDCI parallelization
   Dimitrios Manganas     : Further ROCIS development; embedding schemes
   Dimitrios Pantazis     : SARC Basis sets
   Taras Petrenko         : DFT Hessian,TD-DFT gradient, ASA, ECA, R-Raman, ABS, FL, XAS/XES, NRVS
   Peter Pinski           : DLPNO-MP2, DLPNO-MP2 Gradient
   Christoph Reimann      : Effective Core Potentials
   Marius Retegan         : Local ZFS, SOC
   Christoph Riplinger    : Optimizer, TS searches, QM/MM, DLPNO-CCSD(T), (RO)-DLPNO pert. Triples
   Tobias Risthaus        : Range-separated hybrids, TD-DFT gradient, RPA, STAB
   Michael Roemelt        : Original ROCIS implementation
   Masaaki Saitow         : Open-shell DLPNO-CCSD energy and density
   Barbara Sandhoefer     : DKH picture change effects
   Avijit Sen             : IP-ROCIS
   Kantharuban Sivalingam : CASSCF convergence, NEVPT2, FIC-MRCI
   Bernardo de Souza      : ESD, SOC TD-DFT
   Georgi Stoychev        : AutoAux, RI-MP2 NMR
   Willem Van den Heuvel  : Paramagnetic NMR
   Boris Wezisla          : Elementary symmetry handling
   Frank Wennmohs         : Technical directorship


 We gratefully acknowledge several colleagues who have allowed us to
 interface, adapt or use parts of their codes:
   Stefan Grimme, W. Hujo, H. Kruse,             : VdW corrections, initial TS optimization,
                  C. Bannwarth                     DFT functionals, gCP, sTDA/sTD-DF
   Ed Valeev, F. Pavosevic, A. Kumar             : LibInt (2-el integral package), F12 methods
   Garnet Chan, S. Sharma, J. Yang, R. Olivares  : DMRG
   Ulf Ekstrom                                   : XCFun DFT Library
   Mihaly Kallay                                 : mrcc  (arbitrary order and MRCC methods)
   Andreas Klamt, Michael Diedenhofen            : otool_cosmo (COSMO solvation model)
   Jiri Pittner, Ondrej Demel                    : Mk-CCSD
   Frank Weinhold                                : gennbo (NPA and NBO analysis)
   Christopher J. Cramer and Donald G. Truhlar   : smd solvation model
   Lars Goerigk                                  : TD-DFT with DH, B97 family of functionals
   V. Asgeirsson, H. Jonsson                     : NEB implementation
   FAccTs GmbH                                   : IRC, NEB, NEB-TS, Multilevel, MM, QM/MM, CI optimization
   S Lehtola, MJT Oliveira, MAL Marques          : LibXC Library


 Your calculation uses the libint2 library for the computation of 2-el integrals
 For citations please refer to: http://libint.valeyev.net

 Your ORCA version has been built with support for libXC version: 4.2.3
 For citations please refer to: https://tddft.org/programs/libxc/

 This ORCA versions uses:
   CBLAS   interface :  Fast vector & matrix operations
   LAPACKE interface :  Fast linear algebra routines
   SCALAPACK package :  Parallel linear algebra routines


----- Orbital basis set information -----
Your calculation utilizes the basis: def2-SVP
   F. Weigend and R. Ahlrichs, Phys. Chem. Chem. Phys. 7, 3297 (2005).

================================================================================
                                        WARNINGS
                       Please study these warnings very carefully!
================================================================================


WARNING: Geometry Optimization
  ===> : Switching off AutoStart
         For restart on a previous wavefunction, please use MOREAD

INFO   : the flag for use of LIBINT has been found!

================================================================================
                                       INPUT FILE
================================================================================
NAME = Uracil_0.inp
|  1> !B3LYP def2-SVP OPT FREQ
|  2> %pal
|  3> nprocs 16
|  4> end
|  5> * xyz 0 1
|  6>    C        1.32473        0.49516       -0.07094
|  7>    C        1.13894       -0.83742        0.03418
|  8>    N       -0.14943       -1.38802        0.10855
|  9>    C       -1.30730       -0.55468        0.07507
| 10>    N       -1.12118        0.84628       -0.03525
| 11>    C        0.18928        1.42125       -0.11192
| 12>    O       -2.42322       -1.05548        0.14114
| 13>    O        0.23983        2.63654       -0.20492
| 14>    H        1.97469       -1.54909        0.06650
| 15>    H       -0.26397       -2.37323        0.18546
| 16>    H       -1.93136        1.43000       -0.05870
| 17>    H        2.32899        0.92869       -0.12920
| 18> **                         ****END OF INPUT****
================================================================================

                       *****************************
                       * Geometry Optimization Run *
                       *****************************

Geometry optimization settings:
Update method            Update   .... BFGS
Choice of coordinates    CoordSys .... Z-matrix Internals
Initial Hessian          InHess   .... Almoef's Model

Convergence Tolerances:
Energy Change            TolE     ....  5.0000e-06 Eh
Max. Gradient            TolMAXG  ....  3.0000e-04 Eh/bohr
RMS Gradient             TolRMSG  ....  1.0000e-04 Eh/bohr
Max. Displacement        TolMAXD  ....  4.0000e-03 bohr
RMS Displacement         TolRMSD  ....  2.0000e-03 bohr
Strict Convergence                ....  False
------------------------------------------------------------------------------
                        ORCA OPTIMIZATION COORDINATE SETUP
------------------------------------------------------------------------------

The optimization will be done in new redundant internal coordinates
Making redundant internal coordinates   ...  (new redundants) done
Evaluating the initial hessian          ...  (Almloef) done
Evaluating the coordinates              ...  done
Calculating the B-matrix                .... done
Calculating the G-matrix                .... done
Diagonalizing the G-matrix              .... done
The first mode is                       ....   24
The number of degrees of freedom        ....   30

    -----------------------------------------------------------------
                    Redundant Internal Coordinates


    -----------------------------------------------------------------
         Definition                    Initial Value    Approx d2E/dq
    -----------------------------------------------------------------
      1. B(C   1,C   0)                  1.3496         0.724841   
      2. B(N   2,C   1)                  1.4031         0.533375   
      3. B(C   3,N   2)                  1.4270         0.488534   
      4. B(N   4,C   3)                  1.4176         0.505699   
      5. B(C   5,N   4)                  1.4331         0.477653   
      6. B(C   5,C   0)                  1.4658         0.472939   
      7. B(O   6,C   3)                  1.2249         1.026221   
      8. B(O   7,C   5)                  1.2199         1.045378   
      9. B(H   8,C   1)                  1.0982         0.349441   
     10. B(H   9,N   2)                  0.9948         0.457518   
     11. B(H  10,N   4)                  0.9988         0.450826   
     12. B(H  11,C   0)                  1.0954         0.353039   
     13. A(C   1,C   0,H  11)          121.4094         0.361185   
     14. A(C   1,C   0,C   5)          121.2908         0.425237   
     15. A(C   5,C   0,H  11)          117.2997         0.336112   
     16. A(C   0,C   1,H   8)          122.5076         0.360555   
     17. A(C   0,C   1,N   2)          121.2001         0.431671   
     18. A(N   2,C   1,H   8)          116.2923         0.340258   
     19. A(C   3,N   2,H   9)          119.1265         0.347753   
     20. A(C   1,N   2,C   3)          120.9755         0.399819   
     21. A(C   1,N   2,H   9)          119.8980         0.352948   
     22. A(N   2,C   3,O   6)          119.9461         0.449441   
     23. A(N   2,C   3,N   4)          118.1929         0.396093   
     24. A(N   4,C   3,O   6)          121.8610         0.452269   
     25. A(C   3,N   4,H  10)          118.2217         0.348915   
     26. A(C   3,N   4,C   5)          121.3812         0.394531   
     27. A(C   5,N   4,H  10)          120.3971         0.345580   
     28. A(C   0,C   5,N   4)          116.9595         0.392431   
     29. A(N   4,C   5,O   7)          116.2101         0.449112   
     30. A(C   0,C   5,O   7)          126.8304         0.451286   
     31. D(H   8,C   1,C   0,C   5)    179.9935         0.037230   
     32. D(H   8,C   1,C   0,H  11)      0.0010         0.037230   
     33. D(N   2,C   1,C   0,H  11)    179.9977         0.037230   
     34. D(N   2,C   1,C   0,C   5)     -0.0098         0.037230   
     35. D(H   9,N   2,C   1,C   0)    179.9851         0.022605   
     36. D(C   3,N   2,C   1,C   0)      0.0127         0.022605   
     37. D(C   3,N   2,C   1,H   8)   -179.9903         0.022605   
     38. D(H   9,N   2,C   1,H   8)     -0.0180         0.022605   
     39. D(O   6,C   3,N   2,H   9)      0.0194         0.018843   
     40. D(O   6,C   3,N   2,C   1)    179.9919         0.018843   
     41. D(N   4,C   3,N   2,H   9)   -179.9831         0.018843   
     42. D(N   4,C   3,N   2,C   1)     -0.0106         0.018843   
     43. D(H  10,N   4,C   3,N   2)   -179.9985         0.020233   
     44. D(C   5,N   4,C   3,O   6)   -179.9966         0.020233   
     45. D(C   5,N   4,C   3,N   2)      0.0059         0.020233   
     46. D(H  10,N   4,C   3,O   6)     -0.0010         0.020233   
     47. D(O   7,C   5,N   4,H  10)     -0.0019         0.017995   
     48. D(C   0,C   5,N   4,H  10)   -179.9985         0.017995   
     49. D(C   0,C   5,N   4,C   3)     -0.0030         0.017995   
     50. D(O   7,C   5,C   0,H  11)      0.0015         0.015230   
     51. D(O   7,C   5,C   0,C   1)   -179.9914         0.015230   
     52. D(O   7,C   5,N   4,C   3)    179.9936         0.017995   
     53. D(N   4,C   5,C   0,H  11)    179.9977         0.015230   
     54. D(N   4,C   5,C   0,C   1)      0.0049         0.015230   
    -----------------------------------------------------------------

Number of atoms                         .... 12
Number of degrees of freedom            .... 54

         *************************************************************
         *                GEOMETRY OPTIMIZATION CYCLE   1            *
         *************************************************************
---------------------------------
CARTESIAN COORDINATES (ANGSTROEM)
---------------------------------
  C      1.324730    0.495160   -0.070940
  C      1.138940   -0.837420    0.034180
  N     -0.149430   -1.388020    0.108550
  C     -1.307300   -0.554680    0.075070
  N     -1.121180    0.846280   -0.035250
  C      0.189280    1.421250   -0.111920
  O     -2.423220   -1.055480    0.141140
  O      0.239830    2.636540   -0.204920
  H      1.974690   -1.549090    0.066500
  H     -0.263970   -2.373230    0.185460
  H     -1.931360    1.430000   -0.058700
  H      2.328990    0.928690   -0.129200

----------------------------
CARTESIAN COORDINATES (A.U.)
----------------------------
  NO LB      ZA    FRAG     MASS         X           Y           Z
   0 C     6.0000    0    12.011    2.503377    0.935717   -0.134057
   1 C     6.0000    0    12.011    2.152285   -1.582494    0.064591
   2 N     7.0000    0    14.007   -0.282382   -2.622978    0.205130
   3 C     6.0000    0    12.011   -2.470439   -1.048193    0.141862
   4 N     7.0000    0    14.007   -2.118723    1.599237   -0.066613
   5 C     6.0000    0    12.011    0.357687    2.685773   -0.211498
   6 O     8.0000    0    15.999   -4.579222   -1.994568    0.266716
   7 O     8.0000    0    15.999    0.453213    4.982339   -0.387243
   8 H     1.0000    0     1.008    3.731623   -2.927356    0.125667
   9 H     1.0000    0     1.008   -0.498831   -4.484755    0.350469
  10 H     1.0000    0     1.008   -3.649741    2.702308   -0.110927
  11 H     1.0000    0     1.008    4.401153    1.754970   -0.244153

--------------------------------
INTERNAL COORDINATES (ANGSTROEM)
--------------------------------
 C      0   0   0     0.000000000000     0.00000000     0.00000000
 C      1   0   0     1.349569410923     0.00000000     0.00000000
 N      2   1   0     1.403063973524   121.20006196     0.00000000
 C      3   2   1     1.426968606137   120.97549059     0.00000000
 N      4   3   2     1.417568368157   118.19289712     0.00000000
 C      5   4   3     1.433099508548   121.38121195     0.00000000
 O      4   3   2     1.224925847266   119.94612470   179.99189921
 O      6   5   4     1.219891014230   116.21014351   179.99363208
 H      2   1   3     1.098178871496   122.50760068   180.00327188
 H      3   2   1     0.994823252543   119.89795461   179.98508457
 H      5   4   3     0.998834607580   118.22168911   180.00150113
 H      1   2   3     1.095390631738   121.40942987   179.99770913

---------------------------
INTERNAL COORDINATES (A.U.)
---------------------------
 C      0   0   0     0.000000000000     0.00000000     0.00000000
 C      1   0   0     2.550316585363     0.00000000     0.00000000
 N      2   1   0     2.651406658331   121.20006196     0.00000000
 C      3   2   1     2.696579867302   120.97549059     0.00000000
 N      4   3   2     2.678815991927   118.19289712     0.00000000
 C      5   4   3     2.708165593813   121.38121195     0.00000000
 O      4   3   2     2.314774385694   119.94612470   179.99189921
 O      6   5   4     2.305259930127   116.21014351   179.99363208
 H      2   1   3     2.075257313186   122.50760068   180.00327188
 H      3   2   1     1.879943498963   119.89795461   179.98508457
 H      5   4   3     1.887523861409   118.22168911   180.00150113
 H      1   2   3     2.069988303648   121.40942987   179.99770913

---------------------
BASIS SET INFORMATION
---------------------
There are 4 groups of distinct atoms

 Group   1 Type C   : 7s4p1d contracted to 3s2p1d pattern {511/31/1}
 Group   2 Type N   : 7s4p1d contracted to 3s2p1d pattern {511/31/1}
 Group   3 Type O   : 7s4p1d contracted to 3s2p1d pattern {511/31/1}
 Group   4 Type H   : 4s1p contracted to 2s1p pattern {31/1}

Atom   0C    basis set group =>   1
Atom   1C    basis set group =>   1
Atom   2N    basis set group =>   2
Atom   3C    basis set group =>   1
Atom   4N    basis set group =>   2
Atom   5C    basis set group =>   1
Atom   6O    basis set group =>   3
Atom   7O    basis set group =>   3
Atom   8H    basis set group =>   4
Atom   9H    basis set group =>   4
Atom  10H    basis set group =>   4
Atom  11H    basis set group =>   4


           ************************************************************
           *        Program running with 16 parallel MPI-processes    *
           *              working on a common directory               *
           ************************************************************
------------------------------------------------------------------------------
                           ORCA GTO INTEGRAL CALCULATION
------------------------------------------------------------------------------

                         BASIS SET STATISTICS AND STARTUP INFO

 # of primitive gaussian shells          ...  116
 # of primitive gaussian functions       ...  220
 # of contracted shells                  ...   60
 # of contracted basis functions         ...  132
 Highest angular momentum                ...    2
 Maximum contraction depth               ...    5
 Integral package used                   ... LIBINT
 Integral threshhold            Thresh   ...  2.500e-11
 Primitive cut-off              TCut     ...  2.500e-12


------------------------------ INTEGRAL EVALUATION ----------------------------


 * One electron integrals 
 Pre-screening matrix                    ... done
 Shell pair data                         ... done (   0.001 sec)



           ************************************************************
           *        Program running with 16 parallel MPI-processes    *
           *              working on a common directory               *
           ************************************************************
-------------------------------------------------------------------------------
                                 ORCA SCF
-------------------------------------------------------------------------------

------------
SCF SETTINGS
------------
Hamiltonian:
 Density Functional     Method          .... DFT(GTOs)
 Exchange Functional    Exchange        .... B88
   X-Alpha parameter    XAlpha          ....  0.666667
   Becke's b parameter  XBeta           ....  0.004200
 Correlation Functional Correlation     .... LYP
 LDA part of GGA corr.  LDAOpt          .... VWN-5
 Gradients option       PostSCFGGA      .... off
 Hybrid DFT is turned on
   Fraction HF Exchange ScalHFX         ....  0.200000
   Scaling of DF-GGA-X  ScalDFX         ....  0.720000
   Scaling of DF-GGA-C  ScalDFC         ....  0.810000
   Scaling of DF-LDA-C  ScalLDAC        ....  1.000000
   Perturbative correction              ....  0.000000
   Density functional embedding theory  .... OFF
   NL short-range parameter             ....  4.800000


General Settings:
 Integral files         IntName         .... Uracil_0
 Hartree-Fock type      HFTyp           .... RHF
 Total Charge           Charge          ....    0
 Multiplicity           Mult            ....    1
 Number of Electrons    NEL             ....   58
 Basis Dimension        Dim             ....  132
 Nuclear Repulsion      ENuc            ....    352.5366130217 Eh

Convergence Acceleration:
 DIIS                   CNVDIIS         .... on
   Start iteration      DIISMaxIt       ....    12
   Startup error        DIISStart       ....  0.200000
   # of expansion vecs  DIISMaxEq       ....     5
   Bias factor          DIISBfac        ....   1.050
   Max. coefficient     DIISMaxC        ....  10.000
 Newton-Raphson         CNVNR           .... off
 SOSCF                  CNVSOSCF        .... on
   Start iteration      SOSCFMaxIt      ....   150
   Startup grad/error   SOSCFStart      ....  0.003300
 Level Shifting         CNVShift        .... on
   Level shift para.    LevelShift      ....    0.2500
   Turn off err/grad.   ShiftErr        ....    0.0010
 Zerner damping         CNVZerner       .... off
 Static damping         CNVDamp         .... on
   Fraction old density DampFac         ....    0.7000
   Max. Damping (<1)    DampMax         ....    0.9800
   Min. Damping (>=0)   DampMin         ....    0.0000
   Turn off err/grad.   DampErr         ....    0.1000
 Fernandez-Rico         CNVRico         .... off

SCF Procedure:
 Maximum # iterations   MaxIter         ....   125
 SCF integral mode      SCFMode         .... Direct
   Integral package                     .... LIBINT
 Reset frequency        DirectResetFreq ....    20
 Integral Threshold     Thresh          ....  2.500e-11 Eh
 Primitive CutOff       TCut            ....  2.500e-12 Eh

Convergence Tolerance:
 Convergence Check Mode ConvCheckMode   .... Total+1el-Energy
 Convergence forced     ConvForced      .... 0
 Energy Change          TolE            ....  1.000e-08 Eh
 1-El. energy change                    ....  1.000e-05 Eh
 Orbital Gradient       TolG            ....  1.000e-05
 Orbital Rotation angle TolX            ....  1.000e-05
 DIIS Error             TolErr          ....  5.000e-07


Diagonalization of the overlap matrix:
Smallest eigenvalue                        ... 1.299e-03
Time for diagonalization                   ...    0.112 sec
Threshold for overlap eigenvalues          ... 1.000e-08
Number of eigenvalues below threshold      ... 0
Time for construction of square roots      ...    0.006 sec
Total time needed                          ...    0.118 sec

-------------------
DFT GRID GENERATION
-------------------

General Integration Accuracy     IntAcc      ...  4.340
Radial Grid Type                 RadialGrid  ... Gauss-Chebyshev
Angular Grid (max. acc.)         AngularGrid ... Lebedev-110
Angular grid pruning method      GridPruning ... 3 (G Style)
Weight generation scheme         WeightScheme... Becke
Basis function cutoff            BFCut       ...    1.0000e-11
Integration weight cutoff        WCut        ...    1.0000e-14
Grids for H and He will be reduced by one unit

# of grid points (after initial pruning)     ...  16636 (   0.0 sec)
# of grid points (after weights+screening)   ...  15671 (   0.0 sec)
nearest neighbour list constructed           ...    0.0 sec
Grid point re-assignment to atoms done       ...    0.0 sec
Grid point division into batches done        ...    0.0 sec
Reduced shell lists constructed in    0.0 sec

Total number of grid points                  ...    15671
Total number of batches                      ...      251
Average number of points per batch           ...       62
Average number of grid points per atom       ...     1306
Average number of shells per batch           ...    48.12 (80.20%)
Average number of basis functions per batch  ...   109.53 (82.98%)
Average number of large shells per batch     ...    40.53 (84.23%)
Average number of large basis fcns per batch ...    88.06 (80.40%)
Maximum spatial batch extension              ...   4.13,  4.35, 19.29 au
Average spatial batch extension              ...   0.12,  0.12,  0.21 au

Time for grid setup =    0.072 sec

------------------------------
INITIAL GUESS: MODEL POTENTIAL
------------------------------
Loading Hartree-Fock densities                     ... done
Calculating cut-offs                               ... done
Setting up the integral package                    ... done
Initializing the effective Hamiltonian             ... done
Starting the Coulomb interaction                   ... done (   0.0 sec)
Reading the grid                                   ... done
Mapping shells                                     ... done
Starting the XC term evaluation                    ... done (   0.0 sec)
  promolecular density results
     # of electrons  =     57.998727913
     EX              =    -51.282174059
     EC              =     -2.024863117
     EX+EC           =    -53.307037175
Transforming the Hamiltonian                       ... done (   0.0 sec)
Diagonalizing the Hamiltonian                      ... done (   0.0 sec)
Back transforming the eigenvectors                 ... done (   0.0 sec)
Now organizing SCF variables                       ... done
                      ------------------
                      INITIAL GUESS DONE (   0.3 sec)
                      ------------------
--------------
SCF ITERATIONS
--------------
ITER       Energy         Delta-E        Max-DP      RMS-DP      [F,P]     Damp
               ***  Starting incremental Fock matrix formation  ***
  0   -413.9999447891   0.000000000000 0.16591369  0.00480525  0.2870547 0.7000
  1   -414.1465526409  -0.146607851834 0.09401414  0.00281837  0.1046411 0.7000
                               ***Turning on DIIS***
  2   -414.1919307511  -0.045378110130 0.07470020  0.00318073  0.0422238 0.0000
  3   -414.2816726810  -0.089741929980 0.08047283  0.00211331  0.0494118 0.0000
  4   -414.2937340265  -0.012061345465 0.01047995  0.00047387  0.0237792 0.0000
                      *** Initiating the SOSCF procedure ***
                           *** Shutting down DIIS ***
                      *** Re-Reading the Fockian *** 
                      *** Removing any level shift *** 
ITER      Energy       Delta-E        Grad      Rot      Max-DP    RMS-DP
  5   -414.29581812  -0.0020840954  0.000983  0.000983  0.004311  0.000137
               *** Restarting incremental Fock matrix formation ***
  6   -414.29588717  -0.0000690447  0.001005  0.002879  0.004039  0.000129
  7   -414.29584670   0.0000404662  0.001772  0.001957  0.002706  0.000090
  8   -414.29590127  -0.0000545687  0.000151  0.000760  0.000840  0.000024
  9   -414.29590023   0.0000010441  0.000321  0.000551  0.000587  0.000016
 10   -414.29590175  -0.0000015205  0.000034  0.000122  0.000186  0.000004
 11   -414.29590171   0.0000000354  0.000046  0.000064  0.000112  0.000003
                  ***Gradient check signals convergence***
              ***Rediagonalizing the Fockian in SOSCF/NRSCF***

               *****************************************************
               *                     SUCCESS                       *
               *           SCF CONVERGED AFTER  12 CYCLES          *
               *****************************************************

Setting up the final grid:

General Integration Accuracy     IntAcc      ...  4.670
Radial Grid Type                 RadialGrid  ... Gauss-Chebyshev
Angular Grid (max. acc.)         AngularGrid ... Lebedev-302
Angular grid pruning method      GridPruning ... 3 (G Style)
Weight generation scheme         WeightScheme... Becke
Basis function cutoff            BFCut       ...    1.0000e-11
Integration weight cutoff        WCut        ...    1.0000e-14
Grids for H and He will be reduced by one unit

# of grid points (after initial pruning)     ...  63272 (   0.0 sec)
# of grid points (after weights+screening)   ...  58861 (   0.0 sec)
nearest neighbour list constructed           ...    0.0 sec
Grid point re-assignment to atoms done       ...    0.0 sec
Grid point division into batches done        ...    0.3 sec
Reduced shell lists constructed in    0.3 sec

Total number of grid points                  ...    58861
Total number of batches                      ...      925
Average number of points per batch           ...       63
Average number of grid points per atom       ...     4905
Average number of shells per batch           ...    48.42 (80.71%)
Average number of basis functions per batch  ...   108.97 (82.55%)
Average number of large shells per batch     ...    39.10 (80.75%)
Average number of large basis fcns per batch ...    84.90 (77.91%)
Maximum spatial batch extension              ...   3.85,  3.73, 16.14 au
Average spatial batch extension              ...   0.09,  0.08,  0.11 au

Final grid set up in    0.3 sec
Final integration                            ... done (   0.1 sec)
Change in XC energy                          ...    -0.000004079
Integrated number of electrons               ...    57.999997069
Previous integrated no of electrons          ...    58.001663649

----------------
TOTAL SCF ENERGY
----------------

Total Energy       :         -414.29590585 Eh          -11273.56474 eV

Components:
Nuclear Repulsion  :          352.53661302 Eh            9593.00894 eV
Electronic Energy  :         -766.83251887 Eh          -20866.57367 eV
One Electron Energy:        -1262.36274629 Eh          -34350.63668 eV
Two Electron Energy:          495.53022742 Eh           13484.06300 eV

Virial components:
Potential Energy   :         -824.79855608 Eh          -22443.90974 eV
Kinetic Energy     :          410.50265023 Eh           11170.34500 eV
Virial Ratio       :            2.00924051


DFT components:
N(Alpha)           :       28.999998534553 electrons
N(Beta)            :       28.999998534553 electrons
N(Total)           :       57.999997069107 electrons
E(X)               :      -41.194777698126 Eh       
E(C)               :       -2.385180916934 Eh       
E(XC)              :      -43.579958615060 Eh       
DFET-embed. en.    :        0.000000000000 Eh       

---------------
SCF CONVERGENCE
---------------

  Last Energy change         ...   -5.7727e-08  Tolerance :   1.0000e-08
  Last MAX-Density change    ...    1.2136e-05  Tolerance :   1.0000e-07
  Last RMS-Density change    ...    4.7375e-07  Tolerance :   5.0000e-09
  Last Orbital Gradient      ...    2.1603e-06  Tolerance :   1.0000e-05
  Last Orbital Rotation      ...    8.8221e-06  Tolerance :   1.0000e-05

             **** THE GBW FILE WAS UPDATED (Uracil_0.gbw) ****
             **** DENSITY FILE WAS UPDATED (Uracil_0.scfp) ****
             **** ENERGY FILE WAS UPDATED (Uracil_0.en.tmp) ****
             **** THE GBW FILE WAS UPDATED (Uracil_0.gbw) ****
             **** DENSITY FILE WAS UPDATED (Uracil_0.scfp) ****
----------------
ORBITAL ENERGIES
----------------

  NO   OCC          E(Eh)            E(eV) 
   0   2.0000     -19.115408      -520.1567 
   1   2.0000     -19.108920      -519.9801 
   2   2.0000     -14.401149      -391.8752 
   3   2.0000     -14.381198      -391.3323 
   4   2.0000     -10.342231      -281.4264 
   5   2.0000     -10.305567      -280.4287 
   6   2.0000     -10.274868      -279.5934 
   7   2.0000     -10.210522      -277.8424 
   8   2.0000      -1.058191       -28.7948 
   9   2.0000      -1.030160       -28.0321 
  10   2.0000      -0.959963       -26.1219 
  11   2.0000      -0.910996       -24.7895 
  12   2.0000      -0.791242       -21.5308 
  13   2.0000      -0.684045       -18.6138 
  14   2.0000      -0.646959       -17.6047 
  15   2.0000      -0.595929       -16.2160 
  16   2.0000      -0.561892       -15.2899 
  17   2.0000      -0.532301       -14.4847 
  18   2.0000      -0.476513       -12.9666 
  19   2.0000      -0.473932       -12.8963 
  20   2.0000      -0.446211       -12.1420 
  21   2.0000      -0.423346       -11.5198 
  22   2.0000      -0.417302       -11.3554 
  23   2.0000      -0.405054       -11.0221 
  24   2.0000      -0.370045       -10.0694 
  25   2.0000      -0.294323        -8.0089 
  26   2.0000      -0.284814        -7.7502 
  27   2.0000      -0.263456        -7.1690 
  28   2.0000      -0.256424        -6.9777 
  29   0.0000      -0.051077        -1.3899 
  30   0.0000       0.005983         0.1628 
  31   0.0000       0.031671         0.8618 
  32   0.0000       0.076214         2.0739 
  33   0.0000       0.082831         2.2539 
  34   0.0000       0.104532         2.8445 
  35   0.0000       0.118202         3.2164 
  36   0.0000       0.176537         4.8038 
  37   0.0000       0.193868         5.2754 
  38   0.0000       0.211222         5.7476 
  39   0.0000       0.235875         6.4185 
  40   0.0000       0.261304         7.1104 
  41   0.0000       0.296375         8.0648 
  42   0.0000       0.307343         8.3632 
  43   0.0000       0.382205        10.4003 
  44   0.0000       0.387887        10.5549 
  45   0.0000       0.409386        11.1400 
  46   0.0000       0.420328        11.4377 
  47   0.0000       0.468639        12.7523 
  48   0.0000       0.480529        13.0759 
  49   0.0000       0.508017        13.8238 
  50   0.0000       0.520602        14.1663 
  51   0.0000       0.528131        14.3712 
  52   0.0000       0.584861        15.9149 
  53   0.0000       0.590890        16.0789 
  54   0.0000       0.606732        16.5100 
  55   0.0000       0.630940        17.1687 
  56   0.0000       0.656407        17.8617 
  57   0.0000       0.674077        18.3426 
  58   0.0000       0.713362        19.4116 
  59   0.0000       0.734857        19.9965 
  60   0.0000       0.748400        20.3650 
  61   0.0000       0.763017        20.7627 
  62   0.0000       0.770905        20.9774 
  63   0.0000       0.791125        21.5276 
  64   0.0000       0.852325        23.1929 
  65   0.0000       0.861646        23.4466 
  66   0.0000       0.956319        26.0228 
  67   0.0000       0.996909        27.1273 
  68   0.0000       1.015101        27.6223 
  69   0.0000       1.025015        27.8921 
  70   0.0000       1.072345        29.1800 
  71   0.0000       1.072435        29.1824 
  72   0.0000       1.110353        30.2142 
  73   0.0000       1.172930        31.9170 
  74   0.0000       1.187785        32.3213 
  75   0.0000       1.247352        33.9422 
  76   0.0000       1.261113        34.3166 
  77   0.0000       1.266017        34.4501 
  78   0.0000       1.277750        34.7694 
  79   0.0000       1.300713        35.3942 
  80   0.0000       1.317967        35.8637 
  81   0.0000       1.420489        38.6535 
  82   0.0000       1.423894        38.7461 
  83   0.0000       1.494664        40.6719 
  84   0.0000       1.511226        41.1226 
  85   0.0000       1.521043        41.3897 
  86   0.0000       1.657200        45.0947 
  87   0.0000       1.683137        45.8005 
  88   0.0000       1.700316        46.2680 
  89   0.0000       1.751380        47.6575 
  90   0.0000       1.806769        49.1647 
  91   0.0000       1.814570        49.3769 
  92   0.0000       1.815296        49.3967 
  93   0.0000       1.833059        49.8801 
  94   0.0000       1.839814        50.0639 
  95   0.0000       1.879087        51.1325 
  96   0.0000       1.946845        52.9763 
  97   0.0000       1.952297        53.1247 
  98   0.0000       1.988001        54.0963 
  99   0.0000       2.033553        55.3358 
 100   0.0000       2.084085        56.7108 
 101   0.0000       2.107157        57.3386 
 102   0.0000       2.164067        58.8873 
 103   0.0000       2.203776        59.9678 
 104   0.0000       2.222114        60.4668 
 105   0.0000       2.339362        63.6573 
 106   0.0000       2.422759        65.9266 
 107   0.0000       2.425427        65.9992 
 108   0.0000       2.437598        66.3304 
 109   0.0000       2.508286        68.2539 
 110   0.0000       2.559348        69.6434 
 111   0.0000       2.584305        70.3225 
 112   0.0000       2.598055        70.6967 
 113   0.0000       2.656431        72.2852 
 114   0.0000       2.698838        73.4391 
 115   0.0000       2.707807        73.6832 
 116   0.0000       2.716220        73.9121 
 117   0.0000       2.741932        74.6118 
 118   0.0000       2.810047        76.4653 
 119   0.0000       2.810589        76.4800 
 120   0.0000       2.840726        77.3001 
 121   0.0000       2.950413        80.2848 
 122   0.0000       3.032421        82.5164 
 123   0.0000       3.106869        84.5422 
 124   0.0000       3.130719        85.1912 
 125   0.0000       3.167825        86.2009 
 126   0.0000       3.227036        87.8121 
 127   0.0000       3.409936        92.7891 
 128   0.0000       3.470478        94.4365 
 129   0.0000       3.578410        97.3735 
 130   0.0000       3.609207        98.2115 
 131   0.0000       3.728527       101.4584 

                    ********************************
                    * MULLIKEN POPULATION ANALYSIS *
                    ********************************

-----------------------
MULLIKEN ATOMIC CHARGES
-----------------------
   0 C :   -0.111023
   1 C :    0.137298
   2 N :   -0.132673
   3 C :    0.181995
   4 N :   -0.140386
   5 C :    0.168317
   6 O :   -0.226381
   7 O :   -0.215726
   8 H :    0.032794
   9 H :    0.141958
  10 H :    0.142341
  11 H :    0.021485
Sum of atomic charges:   -0.0000000

--------------------------------
MULLIKEN REDUCED ORBITAL CHARGES
--------------------------------
  0 C s       :     3.214457  s :     3.214457
      pz      :     1.098432  p :     2.867639
      px      :     0.912451
      py      :     0.856755
      dz2     :     0.002743  d :     0.028927
      dxz     :     0.001834
      dyz     :     0.005209
      dx2y2   :     0.008782
      dxy     :     0.010359
  1 C s       :     3.070465  s :     3.070465
      pz      :     0.944247  p :     2.741391
      px      :     0.807294
      py      :     0.989850
      dz2     :     0.003873  d :     0.050845
      dxz     :     0.007781
      dyz     :     0.009074
      dx2y2   :     0.013172
      dxy     :     0.016946
  2 N s       :     3.355553  s :     3.355553
      pz      :     1.628314  p :     3.758340
      px      :     1.057812
      py      :     1.072214
      dz2     :     0.002022  d :     0.018780
      dxz     :     0.003388
      dyz     :     0.001040
      dx2y2   :     0.006313
      dxy     :     0.006017
  3 C s       :     3.009000  s :     3.009000
      pz      :     0.868265  p :     2.682378
      px      :     0.878605
      py      :     0.935507
      dz2     :     0.007311  d :     0.126627
      dxz     :     0.023838
      dyz     :     0.015811
      dx2y2   :     0.040470
      dxy     :     0.039196
  4 N s       :     3.380161  s :     3.380161
      pz      :     1.622010  p :     3.743511
      px      :     1.078387
      py      :     1.043114
      dz2     :     0.002017  d :     0.016714
      dxz     :     0.001470
      dyz     :     0.002183
      dx2y2   :     0.005986
      dxy     :     0.005058
  5 C s       :     3.017155  s :     3.017155
      pz      :     0.847474  p :     2.702538
      px      :     0.935075
      py      :     0.919989
      dz2     :     0.006461  d :     0.111990
      dxz     :     0.009245
      dyz     :     0.023293
      dx2y2   :     0.025729
      dxy     :     0.047261
  6 O s       :     3.732225  s :     3.732225
      pz      :     1.445269  p :     4.476347
      px      :     1.371496
      py      :     1.659582
      dz2     :     0.002075  d :     0.017809
      dxz     :     0.004678
      dyz     :     0.000948
      dx2y2   :     0.004904
      dxy     :     0.005204
  7 O s       :     3.724115  s :     3.724115
      pz      :     1.390359  p :     4.473724
      px      :     1.766860
      py      :     1.316505
      dz2     :     0.002073  d :     0.017888
      dxz     :     0.000063
      dyz     :     0.005642
      dx2y2   :     0.006304
      dxy     :     0.003806
  8 H s       :     0.945382  s :     0.945382
      pz      :     0.004209  p :     0.021823
      px      :     0.009741
      py      :     0.007873
  9 H s       :     0.814374  s :     0.814374
      pz      :     0.012201  p :     0.043669
      px      :     0.006391
      py      :     0.025076
 10 H s       :     0.815386  s :     0.815386
      pz      :     0.010889  p :     0.042273
      px      :     0.018764
      py      :     0.012620
 11 H s       :     0.955276  s :     0.955276
      pz      :     0.005084  p :     0.023238
      px      :     0.012949
      py      :     0.005205


                     *******************************
                     * LOEWDIN POPULATION ANALYSIS *
                     *******************************

----------------------
LOEWDIN ATOMIC CHARGES
----------------------
   0 C :   -0.116851
   1 C :    0.070219
   2 N :    0.007133
   3 C :    0.108189
   4 N :   -0.008157
   5 C :    0.081512
   6 O :   -0.221274
   7 O :   -0.196232
   8 H :    0.040199
   9 H :    0.091499
  10 H :    0.094677
  11 H :    0.049087

-------------------------------
LOEWDIN REDUCED ORBITAL CHARGES
-------------------------------
  0 C s       :     2.876204  s :     2.876204
      pz      :     1.075432  p :     3.159080
      px      :     1.037340
      py      :     1.046307
      dz2     :     0.007381  d :     0.081567
      dxz     :     0.003373
      dyz     :     0.010670
      dx2y2   :     0.027840
      dxy     :     0.032303
  1 C s       :     2.861772  s :     2.861772
      pz      :     0.928292  p :     2.947001
      px      :     0.938953
      py      :     1.079756
      dz2     :     0.008410  d :     0.121009
      dxz     :     0.016157
      dyz     :     0.018822
      dx2y2   :     0.034118
      dxy     :     0.043501
  2 N s       :     3.057972  s :     3.057972
      pz      :     1.565381  p :     3.885060
      px      :     1.156476
      py      :     1.163203
      dz2     :     0.004261  d :     0.049835
      dxz     :     0.006590
      dyz     :     0.001943
      dx2y2   :     0.019320
      dxy     :     0.017721
  3 C s       :     2.825696  s :     2.825696
      pz      :     0.868904  p :     2.787186
      px      :     0.974193
      py      :     0.944089
      dz2     :     0.015611  d :     0.278929
      dxz     :     0.045326
      dyz     :     0.031071
      dx2y2   :     0.094524
      dxy     :     0.092397
  4 N s       :     3.083041  s :     3.083041
      pz      :     1.556132  p :     3.878457
      px      :     1.171543
      py      :     1.150782
      dz2     :     0.004967  d :     0.046658
      dxz     :     0.002861
      dyz     :     0.004254
      dx2y2   :     0.017738
      dxy     :     0.016840
  5 C s       :     2.846935  s :     2.846935
      pz      :     0.843435  p :     2.818987
      px      :     0.958909
      py      :     1.016644
      dz2     :     0.014550  d :     0.252566
      dxz     :     0.018738
      dyz     :     0.043704
      dx2y2   :     0.063415
      dxy     :     0.112158
  6 O s       :     3.555631  s :     3.555631
      pz      :     1.445569  p :     4.635140
      px      :     1.488523
      py      :     1.701048
      dz2     :     0.004417  d :     0.030503
      dxz     :     0.005914
      dyz     :     0.001211
      dx2y2   :     0.009013
      dxy     :     0.009949
  7 O s       :     3.550099  s :     3.550099
      pz      :     1.392119  p :     4.615603
      px      :     1.776000
      py      :     1.447483
      dz2     :     0.004340  d :     0.030530
      dxz     :     0.000086
      dyz     :     0.007125
      dx2y2   :     0.013184
      dxy     :     0.005795
  8 H s       :     0.893384  s :     0.893384
      pz      :     0.012545  p :     0.066418
      px      :     0.030580
      py      :     0.023293
  9 H s       :     0.780107  s :     0.780107
      pz      :     0.040202  p :     0.128394
      px      :     0.017291
      py      :     0.070901
 10 H s       :     0.778054  s :     0.778054
      pz      :     0.037527  p :     0.127269
      px      :     0.054502
      py      :     0.035239
 11 H s       :     0.881729  s :     0.881729
      pz      :     0.016735  p :     0.069184
      px      :     0.038074
      py      :     0.014375


                      *****************************
                      * MAYER POPULATION ANALYSIS *
                      *****************************

  NA   - Mulliken gross atomic population
  ZA   - Total nuclear charge
  QA   - Mulliken gross atomic charge
  VA   - Mayer's total valence
  BVA  - Mayer's bonded valence
  FA   - Mayer's free valence

  ATOM       NA         ZA         QA         VA         BVA        FA
  0 C      6.1110     6.0000    -0.1110     3.8223     3.8223     0.0000
  1 C      5.8627     6.0000     0.1373     3.8919     3.8919     0.0000
  2 N      7.1327     7.0000    -0.1327     3.2346     3.2346    -0.0000
  3 C      5.8180     6.0000     0.1820     4.3754     4.3754    -0.0000
  4 N      7.1404     7.0000    -0.1404     3.1153     3.1153    -0.0000
  5 C      5.8317     6.0000     0.1683     4.2980     4.2980    -0.0000
  6 O      8.2264     8.0000    -0.2264     2.2880     2.2880     0.0000
  7 O      8.2157     8.0000    -0.2157     2.2927     2.2927    -0.0000
  8 H      0.9672     1.0000     0.0328     0.9841     0.9841    -0.0000
  9 H      0.8580     1.0000     0.1420     1.0045     1.0045     0.0000
 10 H      0.8577     1.0000     0.1423     1.0209     1.0209     0.0000
 11 H      0.9785     1.0000     0.0215     1.0049     1.0049     0.0000

  Mayer bond orders larger than 0.100000
B(  0-C ,  1-C ) :   1.6789 B(  0-C ,  5-C ) :   1.0495 B(  0-C , 11-H ) :   0.9709 
B(  1-C ,  2-N ) :   1.1480 B(  1-C ,  8-H ) :   0.9537 B(  2-N ,  3-C ) :   1.0357 
B(  2-N ,  9-H ) :   0.9215 B(  3-C ,  4-N ) :   1.0959 B(  3-C ,  6-O ) :   2.1252 
B(  4-N ,  5-C ) :   1.0248 B(  4-N , 10-H ) :   0.9055 B(  5-C ,  7-O ) :   2.1162 


-------
TIMINGS
-------

Total SCF time: 0 days 0 hours 0 min 5 sec 

Total time                  ....       5.472 sec
Sum of individual times     ....       5.055 sec  ( 92.4%)

Fock matrix formation       ....       4.406 sec  ( 80.5%)
  XC integration            ....       0.321 sec  (  7.3% of F)
    Basis function eval.    ....       0.073 sec  ( 22.6% of XC)
    Density eval.           ....       0.050 sec  ( 15.5% of XC)
    XC-Functional eval.     ....       0.017 sec  (  5.3% of XC)
    XC-Potential eval.      ....       0.068 sec  ( 21.1% of XC)
Diagonalization             ....       0.021 sec  (  0.4%)
Density matrix formation    ....       0.008 sec  (  0.1%)
Population analysis         ....       0.004 sec  (  0.1%)
Initial guess               ....       0.178 sec  (  3.3%)
Orbital Transformation      ....       0.000 sec  (  0.0%)
Orbital Orthonormalization  ....       0.000 sec  (  0.0%)
DIIS solution               ....       0.007 sec  (  0.1%)
SOSCF solution              ....       0.019 sec  (  0.3%)
Grid generation             ....       0.412 sec  (  7.5%)

-------------------------   --------------------
FINAL SINGLE POINT ENERGY      -414.295905846471
-------------------------   --------------------



           ************************************************************
           *        Program running with 16 parallel MPI-processes    *
           *              working on a common directory               *
           ************************************************************
------------------------------------------------------------------------------
                         ORCA SCF GRADIENT CALCULATION
------------------------------------------------------------------------------

Gradient of the Kohn-Sham DFT energy:
Kohn-Sham wavefunction type      ... RKS
Hartree-Fock exchange scaling    ...    0.200
Number of operators              ...    1
Number of atoms                  ...   12
Basis set dimensions             ...  132
Integral neglect threshold       ... 2.5e-11
Integral primitive cutoff        ... 2.5e-12

Nuclear repulsion gradient       ... done
One Electron Gradient            ... done
Pre-screening matrix             ... done
Starting the two electron gradient:
Two electron gradient done
Exchange-correlation gradient    ... done

------------------
CARTESIAN GRADIENT
------------------

   1   C   :   -0.001674688   -0.003544092    0.000292382
   2   C   :    0.018329847    0.010916839   -0.001285799
   3   N   :   -0.018005850   -0.057322618    0.004916259
   4   C   :    0.031813142    0.010038008   -0.001579450
   5   N   :   -0.056451936    0.061568054   -0.003247057
   6   C   :    0.027863829   -0.026037539    0.001298240
   7   O   :   -0.019024281   -0.008008021    0.001066919
   8   O   :   -0.012740054    0.006751634   -0.000186887
   9   H   :    0.003816421   -0.001591881   -0.000002202
  10   H   :    0.009578739    0.015902802   -0.001551312
  11   H   :    0.011859594   -0.009241133    0.000419983
  12   H   :    0.004635238    0.000567947   -0.000141077

Difference to translation invariance:
           :    0.0000000000    0.0000000000    0.0000000000

Norm of the cartesian gradient     ...    0.1221196525
RMS gradient                       ...    0.0203532754
MAX gradient                       ...    0.0615680540

-------
TIMINGS
-------

Total SCF gradient time            ...        1.009 sec

One electron gradient       ....       0.013 sec  (  1.3%)
Prescreening matrices       ....       0.015 sec  (  1.4%)
Two electron gradient       ....       0.536 sec  ( 53.1%)
XC gradient                 ....       0.279 sec  ( 27.6%)
------------------------------------------------------------------------------
                         ORCA GEOMETRY RELAXATION STEP
------------------------------------------------------------------------------

Reading the OPT-File                    .... done
Getting information on internals        .... done
Copying old internal coords+grads       .... done
Making the new internal coordinates     .... (new redundants).... done
Validating the new internal coordinates .... (new redundants).... done
Calculating the B-matrix                .... done
Calculating the G,G- and P matrices     .... done
Transforming gradient to internals      .... done
Projecting the internal gradient        .... done
Number of atoms                         ....  12
Number of internal coordinates          ....  54
Current Energy                          ....  -414.295905846 Eh
Current gradient norm                   ....     0.122119653 Eh/bohr
Maximum allowed component of the step   ....  0.300
Current trust radius                    ....  0.300
Evaluating the initial hessian          ....  (Almloef) done
Projecting the Hessian                  .... done
Forming the augmented Hessian           .... done
Diagonalizing the augmented Hessian     .... done
Last element of RFO vector              ....  0.986452692
Lowest eigenvalues of augmented Hessian:
 -0.012530891  0.016371342  0.017942431  0.018935483  0.019581668
Length of the computed step             ....  0.166298894
The final length of the internal step   ....  0.166298894
Converting the step to cartesian space:
 Initial RMS(Int)=    0.0226304131
Transforming coordinates:
 Iter   0:  RMS(Cart)=    0.0292669768 RMS(Int)=    2.8356724072
 Iter   1:  RMS(Cart)=    0.0006864951 RMS(Int)=    0.0004106844
 Iter   2:  RMS(Cart)=    0.0000150360 RMS(Int)=    0.0000112844
 Iter   3:  RMS(Cart)=    0.0000007008 RMS(Int)=    0.0000004049
 Iter   4:  RMS(Cart)=    0.0000000162 RMS(Int)=    0.0000000115
done
Storing new coordinates                 .... done

                                .--------------------.
          ----------------------|Geometry convergence|-------------------------
          Item                value                   Tolerance       Converged
          ---------------------------------------------------------------------
          RMS gradient        0.0104467313            0.0001000000      NO
          MAX gradient        0.0276011447            0.0003000000      NO
          RMS step            0.0226304131            0.0020000000      NO
          MAX step            0.0675811093            0.0040000000      NO
          ........................................................
          Max(Bonds)      0.0280      Max(Angles)    3.87
          Max(Dihed)        0.08      Max(Improp)    0.00
          ---------------------------------------------------------------------

The optimization has not yet converged - more geometry cycles are needed


    ---------------------------------------------------------------------------
                         Redundant Internal Coordinates
                            (Angstroem and degrees)

        Definition                    Value    dE/dq     Step     New-Value
    ----------------------------------------------------------------------------
     1. B(C   1,C   0)                1.3496  0.000550  0.0000    1.3496   
     2. B(N   2,C   1)                1.4031  0.020735 -0.0201    1.3830   
     3. B(C   3,N   2)                1.4270  0.025931 -0.0280    1.3990   
     4. B(N   4,C   3)                1.4176  0.025776 -0.0269    1.3907   
     5. B(C   5,N   4)                1.4331  0.010840 -0.0117    1.4213   
     6. B(C   5,C   0)                1.4658  0.008074 -0.0082    1.4576   
     7. B(O   6,C   3)                1.2249  0.020663 -0.0105    1.2144   
     8. B(O   7,C   5)                1.2199  0.006213 -0.0031    1.2168   
     9. B(H   8,C   1)                1.0982  0.003936 -0.0058    1.0924   
    10. B(H   9,N   2)                0.9948 -0.016972  0.0191    1.0139   
    11. B(H  10,N   4)                0.9988 -0.015030  0.0172    1.0160   
    12. B(H  11,C   0)                1.0954  0.004482 -0.0065    1.0889   
    13. A(C   1,C   0,H  11)          121.41 -0.004083    0.54    121.95   
    14. A(C   1,C   0,C   5)          121.29  0.005438   -0.66    120.63   
    15. A(C   5,C   0,H  11)          117.30 -0.001355    0.13    117.43   
    16. A(C   0,C   1,H   8)          122.51 -0.000459    0.08    122.59   
    17. A(C   0,C   1,N   2)          121.20 -0.001716    0.26    121.46   
    18. A(N   2,C   1,H   8)          116.29  0.002175   -0.34    115.95   
    19. A(C   3,N   2,H   9)          119.13  0.013164   -1.93    117.19   
    20. A(C   1,N   2,C   3)          120.98 -0.011887    1.58    122.55   
    21. A(C   1,N   2,H   9)          119.90 -0.001278    0.36    120.26   
    22. A(N   2,C   3,O   6)          119.95 -0.008868    1.31    121.26   
    23. A(N   2,C   3,N   4)          118.19  0.018855   -2.76    115.43   
    24. A(N   4,C   3,O   6)          121.86 -0.009988    1.44    123.31   
    25. A(C   3,N   4,H  10)          118.22  0.013263   -1.84    116.38   
    26. A(C   3,N   4,C   5)          121.38 -0.027601    3.87    125.25   
    27. A(C   5,N   4,H  10)          120.40  0.014338   -2.03    118.37   
    28. A(C   0,C   5,N   4)          116.96  0.016910   -2.28    114.68   
    29. A(N   4,C   5,O   7)          116.21 -0.023456    3.00    119.21   
    30. A(C   0,C   5,O   7)          126.83  0.006545   -0.72    126.11   
    31. D(H   8,C   1,C   0,C   5)    179.99 -0.000020    0.03    180.02   
    32. D(H   8,C   1,C   0,H  11)      0.00 -0.000014    0.02      0.02   
    33. D(N   2,C   1,C   0,H  11)    180.00  0.000003   -0.01    179.99   
    34. D(N   2,C   1,C   0,C   5)     -0.01 -0.000002    0.00     -0.01   
    35. D(H   9,N   2,C   1,C   0)    179.99 -0.000044    0.08    180.06   
    36. D(C   3,N   2,C   1,C   0)      0.01  0.000006   -0.01     -0.00   
    37. D(C   3,N   2,C   1,H   8)   -179.99  0.000022   -0.04   -180.03   
    38. D(H   9,N   2,C   1,H   8)     -0.02 -0.000028    0.05      0.04   
    39. D(O   6,C   3,N   2,H   9)      0.02  0.000036   -0.06     -0.04   
    40. D(O   6,C   3,N   2,C   1)    179.99 -0.000018    0.03    180.02   
    41. D(N   4,C   3,N   2,H   9)   -179.98  0.000047   -0.08   -180.06   
    42. D(N   4,C   3,N   2,C   1)     -0.01 -0.000007    0.01      0.00   
    43. D(H  10,N   4,C   3,N   2)   -180.00  0.000003   -0.00   -180.00   
    44. D(C   5,N   4,C   3,O   6)   -180.00  0.000012   -0.02   -180.02   
    45. D(C   5,N   4,C   3,N   2)      0.01  0.000001    0.00      0.01   
    46. D(H  10,N   4,C   3,O   6)     -0.00  0.000015   -0.02     -0.02   
    47. D(O   7,C   5,N   4,H  10)     -0.00 -0.000012    0.03      0.02   
    48. D(C   0,C   5,N   4,H  10)   -180.00  0.000003   -0.01   -180.00   
    49. D(C   0,C   5,N   4,C   3)     -0.00  0.000005   -0.01     -0.01   
    50. D(O   7,C   5,C   0,H  11)      0.00  0.000009   -0.02     -0.02   
    51. D(O   7,C   5,C   0,C   1)   -179.99  0.000015   -0.03   -180.02   
    52. D(O   7,C   5,N   4,C   3)    179.99 -0.000010    0.02    180.01   
    53. D(N   4,C   5,C   0,H  11)    180.00 -0.000009    0.02    180.01   
    54. D(N   4,C   5,C   0,C   1)      0.00 -0.000003    0.01      0.01   
    ----------------------------------------------------------------------------

         *************************************************************
         *                GEOMETRY OPTIMIZATION CYCLE   2            *
         *************************************************************
---------------------------------
CARTESIAN COORDINATES (ANGSTROEM)
---------------------------------
  C      1.320625    0.506790   -0.071869
  C      1.120377   -0.823641    0.033333
  N     -0.153103   -1.357926    0.105904
  C     -1.304931   -0.564478    0.075499
  N     -1.084718    0.804395   -0.033108
  C      0.190741    1.426773   -0.112520
  O     -2.412344   -1.058525    0.141235
  O      0.255497    2.638304   -0.205044
  H      1.942897   -1.541781    0.066903
  H     -0.282863   -2.360357    0.185579
  H     -1.911738    1.394094   -0.056487
  H      2.319559    0.936353   -0.129455

----------------------------
CARTESIAN COORDINATES (A.U.)
----------------------------
  NO LB      ZA    FRAG     MASS         X           Y           Z
   0 C     6.0000    0    12.011    2.495620    0.957694   -0.135812
   1 C     6.0000    0    12.011    2.117205   -1.556456    0.062990
   2 N     7.0000    0    14.007   -0.289322   -2.566109    0.200130
   3 C     6.0000    0    12.011   -2.465963   -1.066709    0.142672
   4 N     7.0000    0    14.007   -2.049819    1.520086   -0.062566
   5 C     6.0000    0    12.011    0.360448    2.696210   -0.212633
   6 O     8.0000    0    15.999   -4.558669   -2.000322    0.266896
   7 O     8.0000    0    15.999    0.482820    4.985672   -0.387477
   8 H     1.0000    0     1.008    3.671543   -2.913545    0.126429
   9 H     1.0000    0     1.008   -0.534533   -4.460429    0.350694
  10 H     1.0000    0     1.008   -3.612662    2.634456   -0.106745
  11 H     1.0000    0     1.008    4.383332    1.769450   -0.244635

--------------------------------
INTERNAL COORDINATES (ANGSTROEM)
--------------------------------
 C      0   0   0     0.000000000000     0.00000000     0.00000000
 C      1   0   0     1.349523027627     0.00000000     0.00000000
 N      2   1   0     1.382923296847   121.44040909     0.00000000
 C      3   2   1     1.398997284906   122.54140282     0.00000000
 N      4   3   2     1.390720043764   115.44047754     0.00000000
 C      5   4   3     1.421427273940   125.26950844     0.00000000
 O      4   3   2     1.214399434214   121.25730177   180.02283158
 O      6   5   4     1.216783427568   119.20702574   180.01473723
 H      2   1   3     1.092424846514   122.59885068   180.02710492
 H      3   2   1     1.013930100533   120.26078072   180.06170712
 H      5   4   3     1.015999634432   116.37215085   179.99732746
 H      1   2   3     1.088902855551   121.94857107   179.99217424

---------------------------
INTERNAL COORDINATES (A.U.)
---------------------------
 C      0   0   0     0.000000000000     0.00000000     0.00000000
 C      1   0   0     2.550228933635     0.00000000     0.00000000
 N      2   1   0     2.613346295260   121.44040909     0.00000000
 C      3   2   1     2.643721730572   122.54140282     0.00000000
 N      4   3   2     2.628080011670   115.44047754     0.00000000
 C      5   4   3     2.686108267034   125.26950844     0.00000000
 O      4   3   2     2.294882347853   121.25730177   180.02283158
 O      6   5   4     2.299387442397   119.20702574   180.01473723
 H      2   1   3     2.064383781802   122.59885068   180.02710492
 H      3   2   1     1.916050208947   120.26078072   180.06170712
 H      5   4   3     1.919961061240   116.37215085   179.99732746
 H      1   2   3     2.057728183436   121.94857107   179.99217424



           ************************************************************
           *        Program running with 16 parallel MPI-processes    *
           *              working on a common directory               *
           ************************************************************


           ************************************************************
           *        Program running with 16 parallel MPI-processes    *
           *              working on a common directory               *
           ************************************************************

Diagonalization of the overlap matrix:
Smallest eigenvalue                        ... 1.285e-03
Time for diagonalization                   ...    0.005 sec
Threshold for overlap eigenvalues          ... 1.000e-08
Number of eigenvalues below threshold      ... 0
Time for construction of square roots      ...    0.002 sec
Total time needed                          ...    0.007 sec

-------------------
DFT GRID GENERATION
-------------------

General Integration Accuracy     IntAcc      ...  4.340
Radial Grid Type                 RadialGrid  ... Gauss-Chebyshev
Angular Grid (max. acc.)         AngularGrid ... Lebedev-110
Angular grid pruning method      GridPruning ... 3 (G Style)
Weight generation scheme         WeightScheme... Becke
Basis function cutoff            BFCut       ...    1.0000e-11
Integration weight cutoff        WCut        ...    1.0000e-14
Grids for H and He will be reduced by one unit

# of grid points (after initial pruning)     ...  16636 (   0.0 sec)
# of grid points (after weights+screening)   ...  15664 (   0.0 sec)
nearest neighbour list constructed           ...    0.0 sec
Grid point re-assignment to atoms done       ...    0.0 sec
Grid point division into batches done        ...    0.0 sec
Reduced shell lists constructed in    0.0 sec

Total number of grid points                  ...    15664
Total number of batches                      ...      250
Average number of points per batch           ...       62
Average number of grid points per atom       ...     1305
Average number of shells per batch           ...    48.18 (80.29%)
Average number of basis functions per batch  ...   109.59 (83.02%)
Average number of large shells per batch     ...    40.82 (84.74%)
Average number of large basis fcns per batch ...    88.71 (80.94%)
Maximum spatial batch extension              ...   3.53,  4.35, 19.29 au
Average spatial batch extension              ...   0.12,  0.12,  0.21 au

Time for grid setup =    0.048 sec

--------------
SCF ITERATIONS
--------------
ITER       Energy         Delta-E        Max-DP      RMS-DP      [F,P]     Damp
               ***  Starting incremental Fock matrix formation  ***
  0   -414.3025818685   0.000000000000 0.00371791  0.00022554  0.0092751 0.7000
                      *** Initiating the SOSCF procedure ***
                      *** Re-Reading the Fockian *** 
                      *** Removing any level shift *** 
ITER      Energy       Delta-E        Grad      Rot      Max-DP    RMS-DP
  1   -414.30304381  -0.0004619381  0.001030  0.001030  0.010026  0.000639
               *** Restarting incremental Fock matrix formation ***
  2   -414.30412946  -0.0010856560  0.000847  0.001805  0.006309  0.000188
  3   -414.30414162  -0.0000121566  0.000928  0.001875  0.002330  0.000084
  4   -414.30417390  -0.0000322790  0.000331  0.000841  0.001272  0.000046
  5   -414.30417122   0.0000026777  0.000501  0.000479  0.000938  0.000028
  6   -414.30417652  -0.0000052945  0.000075  0.000373  0.000363  0.000014
  7   -414.30417625   0.0000002606  0.000160  0.000280  0.000252  0.000009
  8   -414.30417666  -0.0000004036  0.000021  0.000060  0.000107  0.000003
  9   -414.30417665   0.0000000129  0.000028  0.000035  0.000061  0.000002
                  ***Gradient check signals convergence***
              ***Rediagonalizing the Fockian in SOSCF/NRSCF***

               *****************************************************
               *                     SUCCESS                       *
               *           SCF CONVERGED AFTER  10 CYCLES          *
               *****************************************************

Setting up the final grid:

General Integration Accuracy     IntAcc      ...  4.670
Radial Grid Type                 RadialGrid  ... Gauss-Chebyshev
Angular Grid (max. acc.)         AngularGrid ... Lebedev-302
Angular grid pruning method      GridPruning ... 3 (G Style)
Weight generation scheme         WeightScheme... Becke
Basis function cutoff            BFCut       ...    1.0000e-11
Integration weight cutoff        WCut        ...    1.0000e-14
Grids for H and He will be reduced by one unit

# of grid points (after initial pruning)     ...  63272 (   0.0 sec)
# of grid points (after weights+screening)   ...  58821 (   0.0 sec)
nearest neighbour list constructed           ...    0.0 sec
Grid point re-assignment to atoms done       ...    0.0 sec
Grid point division into batches done        ...    0.3 sec
Reduced shell lists constructed in    0.3 sec

Total number of grid points                  ...    58821
Total number of batches                      ...      926
Average number of points per batch           ...       63
Average number of grid points per atom       ...     4902
Average number of shells per batch           ...    48.51 (80.85%)
Average number of basis functions per batch  ...   109.25 (82.77%)
Average number of large shells per batch     ...    39.17 (80.75%)
Average number of large basis fcns per batch ...    85.27 (78.05%)
Maximum spatial batch extension              ...   3.79,  3.80, 16.02 au
Average spatial batch extension              ...   0.08,  0.08,  0.11 au

Final grid set up in    0.3 sec
Final integration                            ... done (   0.2 sec)
Change in XC energy                          ...     0.000023525
Integrated number of electrons               ...    57.999990370
Previous integrated no of electrons          ...    58.001613547
Total Energy       :         -414.30415315 Eh          -11273.78916 eV
  Last Energy change         ...   -2.5216e-08  Tolerance :   1.0000e-08
  Last MAX-Density change    ...    1.2530e-05  Tolerance :   1.0000e-07
             **** THE GBW FILE WAS UPDATED (Uracil_0.gbw) ****
             **** DENSITY FILE WAS UPDATED (Uracil_0.scfp) ****
             **** ENERGY FILE WAS UPDATED (Uracil_0.en.tmp) ****
             **** THE GBW FILE WAS UPDATED (Uracil_0.gbw) ****
             **** DENSITY FILE WAS UPDATED (Uracil_0.scfp) ****
Total SCF time: 0 days 0 hours 0 min 4 sec 

-------------------------   --------------------
FINAL SINGLE POINT ENERGY      -414.304153145069
-------------------------   --------------------



           ************************************************************
           *        Program running with 16 parallel MPI-processes    *
           *              working on a common directory               *
           ************************************************************
------------------------------------------------------------------------------
                         ORCA SCF GRADIENT CALCULATION
------------------------------------------------------------------------------

Gradient of the Kohn-Sham DFT energy:
Kohn-Sham wavefunction type      ... RKS
Hartree-Fock exchange scaling    ...    0.200
Number of operators              ...    1
Number of atoms                  ...   12
Basis set dimensions             ...  132
Integral neglect threshold       ... 2.5e-11
Integral primitive cutoff        ... 2.5e-12

Nuclear repulsion gradient       ... done
One Electron Gradient            ... done
Pre-screening matrix             ... done
Starting the two electron gradient:
Two electron gradient done
Exchange-correlation gradient    ... done

------------------
CARTESIAN GRADIENT
------------------

   1   C   :   -0.003334391   -0.000593575    0.000137222
   2   C   :    0.007291802    0.004759028   -0.000574327
   3   N   :   -0.012062194   -0.012742054    0.001396813
   4   C   :    0.015165134    0.005105729   -0.000835946
   5   N   :   -0.020151097    0.017045503   -0.000757869
   6   C   :    0.013796096   -0.013894748    0.000667128
   7   O   :   -0.001581368   -0.001421298    0.000146895
   8   O   :   -0.003414202    0.003408327   -0.000140738
   9   H   :    0.000294234    0.000386171   -0.000050005
  10   H   :    0.004250889   -0.000996641   -0.000115879
  11   H   :   -0.000360575   -0.000897450    0.000094116
  12   H   :    0.000105673   -0.000158991    0.000032590

Difference to translation invariance:
           :    0.0000000000   -0.0000000000   -0.0000000000

Norm of the cartesian gradient     ...    0.0422298248
RMS gradient                       ...    0.0070383041
MAX gradient                       ...    0.0201510975

-------
TIMINGS
-------

Total SCF gradient time            ...        0.909 sec

One electron gradient       ....       0.005 sec  (  0.6%)
Prescreening matrices       ....       0.010 sec  (  1.1%)
Two electron gradient       ....       0.507 sec  ( 55.7%)
XC gradient                 ....       0.214 sec  ( 23.5%)
------------------------------------------------------------------------------
                         ORCA GEOMETRY RELAXATION STEP
------------------------------------------------------------------------------

Reading the OPT-File                    .... done
Getting information on internals        .... done
Copying old internal coords+grads       .... done
Making the new internal coordinates     .... (new redundants).... done
Validating the new internal coordinates .... (new redundants).... done
Calculating the B-matrix                .... done
Calculating the G,G- and P matrices     .... done
Transforming gradient to internals      .... done
Projecting the internal gradient        .... done
Number of atoms                         ....  12
Number of internal coordinates          ....  54
Current Energy                          ....  -414.304153145 Eh
Current gradient norm                   ....     0.042229825 Eh/bohr
Maximum allowed component of the step   ....  0.300
Current trust radius                    ....  0.300
Updating the Hessian (BFGS)             .... done
Forming the augmented Hessian           .... done
Diagonalizing the augmented Hessian     .... done
Last element of RFO vector              ....  0.995152443
Lowest eigenvalues of augmented Hessian:
 -0.002559846  0.016371393  0.017942466  0.018935480  0.019581677
Length of the computed step             ....  0.098823426
The final length of the internal step   ....  0.098823426
Converting the step to cartesian space:
 Initial RMS(Int)=    0.0134481649
Transforming coordinates:
 Iter   0:  RMS(Cart)=    0.0178390607 RMS(Int)=    1.7100121766
 Iter   1:  RMS(Cart)=    0.0002974984 RMS(Int)=    0.0001735724
 Iter   2:  RMS(Cart)=    0.0000047318 RMS(Int)=    0.0000033390
 Iter   3:  RMS(Cart)=    0.0000001520 RMS(Int)=    0.0000000893
 Iter   4:  RMS(Cart)=    0.0000000025 RMS(Int)=    0.0000000018
done
Storing new coordinates                 .... done

                                .--------------------.
          ----------------------|Geometry convergence|-------------------------
          Item                value                   Tolerance       Converged
          ---------------------------------------------------------------------
          Energy change      -0.0082472986            0.0000050000      NO
          RMS gradient        0.0035533921            0.0001000000      NO
          MAX gradient        0.0125110920            0.0003000000      NO
          RMS step            0.0134481649            0.0020000000      NO
          MAX step            0.0483078771            0.0040000000      NO
          ........................................................
          Max(Bonds)      0.0098      Max(Angles)    2.77
          Max(Dihed)        0.10      Max(Improp)    0.00
          ---------------------------------------------------------------------

The optimization has not yet converged - more geometry cycles are needed


    ---------------------------------------------------------------------------
                         Redundant Internal Coordinates
                            (Angstroem and degrees)

        Definition                    Value    dE/dq     Step     New-Value
    ----------------------------------------------------------------------------
     1. B(C   1,C   0)                1.3495 -0.002475  0.0029    1.3524   
     2. B(N   2,C   1)                1.3829  0.006036 -0.0096    1.3734   
     3. B(C   3,N   2)                1.3990  0.004019 -0.0081    1.3909   
     4. B(N   4,C   3)                1.3907  0.005209 -0.0098    1.3810   
     5. B(C   5,N   4)                1.4214  0.004486 -0.0079    1.4135   
     6. B(C   5,C   0)                1.4576 -0.001589  0.0025    1.4601   
     7. B(O   6,C   3)                1.2144  0.002028 -0.0021    1.2123   
     8. B(O   7,C   5)                1.2168  0.003223 -0.0025    1.2142   
     9. B(H   8,C   1)                1.0924 -0.000034 -0.0002    1.0922   
    10. B(H   9,N   2)                1.0139  0.000432  0.0003    1.0142   
    11. B(H  10,N   4)                1.0160 -0.000230  0.0013    1.0173   
    12. B(H  11,C   0)                1.0889  0.000032 -0.0004    1.0885   
    13. A(C   1,C   0,H  11)          121.95 -0.001544    0.31    122.26   
    14. A(C   1,C   0,C   5)          120.62  0.002697   -0.53    120.10   
    15. A(C   5,C   0,H  11)          117.43 -0.001154    0.22    117.64   
    16. A(C   0,C   1,H   8)          122.60 -0.000075    0.02    122.62   
    17. A(C   0,C   1,N   2)          121.44 -0.000854    0.23    121.67   
    18. A(N   2,C   1,H   8)          115.96  0.000929   -0.25    115.71   
    19. A(C   3,N   2,H   9)          117.20  0.006782   -1.61    115.59   
    20. A(C   1,N   2,C   3)          122.54 -0.005237    1.14    123.68   
    21. A(C   1,N   2,H   9)          120.26 -0.001544    0.47    120.73   
    22. A(N   2,C   3,O   6)          121.26 -0.005584    1.24    122.50   
    23. A(N   2,C   3,N   4)          115.44  0.009665   -2.22    113.23   
    24. A(N   4,C   3,O   6)          123.30 -0.004081    0.97    124.27   
    25. A(C   3,N   4,H  10)          116.37  0.005349   -1.16    115.21   
    26. A(C   3,N   4,C   5)          125.27 -0.012511    2.77    128.04   
    27. A(C   5,N   4,H  10)          118.36  0.007162   -1.61    116.75   
    28. A(C   0,C   5,N   4)          114.69  0.006240   -1.39    113.29   
    29. A(N   4,C   5,O   7)          119.21 -0.007250    1.55    120.76   
    30. A(C   0,C   5,O   7)          126.11  0.001010   -0.16    125.95   
    31. D(H   8,C   1,C   0,C   5)   -179.98 -0.000010    0.02   -179.96   
    32. D(H   8,C   1,C   0,H  11)      0.02 -0.000009    0.02      0.04   
    33. D(N   2,C   1,C   0,H  11)    179.99 -0.000009    0.02    180.02   
    34. D(N   2,C   1,C   0,C   5)     -0.01 -0.000010    0.03      0.02   
    35. D(H   9,N   2,C   1,C   0)   -179.94 -0.000027    0.07   -179.86   
    36. D(C   3,N   2,C   1,C   0)     -0.00  0.000014   -0.04     -0.04   
    37. D(C   3,N   2,C   1,H   8)    179.97  0.000014   -0.04    179.94   
    38. D(H   9,N   2,C   1,H   8)      0.04 -0.000027    0.08      0.12   
    39. D(O   6,C   3,N   2,H   9)     -0.04  0.000030   -0.10     -0.14   
    40. D(O   6,C   3,N   2,C   1)   -179.98 -0.000006    0.01   -179.97   
    41. D(N   4,C   3,N   2,H   9)    179.94  0.000021   -0.07    179.87   
    42. D(N   4,C   3,N   2,C   1)      0.00 -0.000014    0.05      0.05   
    43. D(H  10,N   4,C   3,N   2)    180.00  0.000010   -0.04    179.96   
    44. D(C   5,N   4,C   3,O   6)    179.98  0.000001   -0.00    179.98   
    45. D(C   5,N   4,C   3,N   2)      0.01  0.000009   -0.04     -0.03   
    46. D(H  10,N   4,C   3,O   6)     -0.02  0.000001   -0.00     -0.03   
    47. D(O   7,C   5,N   4,H  10)      0.02  0.000002   -0.01      0.01   
    48. D(C   0,C   5,N   4,H  10)    180.00 -0.000006    0.02    180.02   
    49. D(C   0,C   5,N   4,C   3)     -0.01 -0.000006    0.03      0.01   
    50. D(O   7,C   5,C   0,H  11)     -0.02 -0.000004    0.03      0.01   
    51. D(O   7,C   5,C   0,C   1)    179.98 -0.000004    0.02    180.01   
    52. D(O   7,C   5,N   4,C   3)   -179.99  0.000002   -0.01   -180.00   
    53. D(N   4,C   5,C   0,H  11)   -179.99  0.000006   -0.02   -180.00   
    54. D(N   4,C   5,C   0,C   1)      0.01  0.000007   -0.02     -0.01   
    ----------------------------------------------------------------------------

         *************************************************************
         *                GEOMETRY OPTIMIZATION CYCLE   3            *
         *************************************************************
---------------------------------
CARTESIAN COORDINATES (ANGSTROEM)
---------------------------------
  C      1.322959    0.514078   -0.072483
  C      1.112986   -0.817675    0.032939
  N     -0.153394   -1.343979    0.104351
  C     -1.311268   -0.573780    0.076420
  N     -1.062498    0.780383   -0.031826
  C      0.188909    1.432829   -0.112600
  O     -2.419342   -1.061125    0.141489
  O      0.253994    2.641787   -0.205192
  H      1.929962   -1.541763    0.067198
  H     -0.294856   -2.345032    0.185289
  H     -1.889592    1.372206   -0.055554
  H      2.322139    0.942070   -0.130062

----------------------------
CARTESIAN COORDINATES (A.U.)
----------------------------
  NO LB      ZA    FRAG     MASS         X           Y           Z
   0 C     6.0000    0    12.011    2.500030    0.971466   -0.136974
   1 C     6.0000    0    12.011    2.103239   -1.545181    0.062246
   2 N     7.0000    0    14.007   -0.289872   -2.539752    0.197195
   3 C     6.0000    0    12.011   -2.477938   -1.084286    0.144413
   4 N     7.0000    0    14.007   -2.007830    1.474710   -0.060143
   5 C     6.0000    0    12.011    0.356987    2.707654   -0.212782
   6 O     8.0000    0    15.999   -4.571894   -2.005236    0.267376
   7 O     8.0000    0    15.999    0.479978    4.992255   -0.387757
   8 H     1.0000    0     1.008    3.647101   -2.913510    0.126987
   9 H     1.0000    0     1.008   -0.557197   -4.431469    0.350145
  10 H     1.0000    0     1.008   -3.570811    2.593094   -0.104982
  11 H     1.0000    0     1.008    4.388207    1.780254   -0.245782

--------------------------------
INTERNAL COORDINATES (ANGSTROEM)
--------------------------------
 C      0   0   0     0.000000000000     0.00000000     0.00000000
 C      1   0   0     1.352319130798     0.00000000     0.00000000
 N      2   1   0     1.373249124718   121.64572581     0.00000000
 C      3   2   1     1.390920788234   123.66962123   359.95668130
 N      4   3   2     1.381071958560   113.23914251     0.04683553
 C      5   4   3     1.413587694700   128.06106281   359.96553542
 O      4   3   2     1.212256962275   122.49477464   180.03271317
 O      6   5   4     1.214244963347   120.75391909   180.00413036
 H      2   1   3     1.092212631807   122.62762113   180.02156912
 H      3   2   1     1.014233943978   120.73355866   180.13791601
 H      5   4   3     1.017301535352   115.20141313   179.96003842
 H      1   2   3     1.088509790332   122.26672281   180.01717744

---------------------------
INTERNAL COORDINATES (A.U.)
---------------------------
[...]
     13      -0.210945  -0.002537  -0.003355  -0.003851   0.113467   0.016434
     14       0.015127  -0.025728  -0.043703  -0.043839  -0.008311   0.200913
     15      -0.014001  -0.002531  -0.001277   0.005079  -0.009516  -0.001638
     16      -0.012698  -0.005027  -0.004286   0.014997   0.197490  -0.001806
     17       0.001717  -0.067653  -0.056558   0.201867  -0.012826  -0.064072
     18      -0.294389  -0.000367   0.000066   0.001218  -0.254394  -0.000242
     19       0.093310   0.001401   0.000180   0.003799  -0.046493   0.011424
     20       0.000671   0.004109   0.003712   0.047054   0.006756   0.157879
     21       0.225982   0.001417  -0.000000  -0.001200  -0.022147   0.000350
     22      -0.029492   0.001530  -0.000066  -0.004341   0.259196   0.005415
     23      -0.003585   0.020375   0.000025  -0.056125  -0.019364   0.019374
     24       0.126402   0.003243  -0.002478  -0.006145   0.369613   0.010793
     25       0.350784   0.007724  -0.006899  -0.017396  -0.368435   0.009836
     26      -0.028032   0.089955  -0.094253  -0.237968   0.012750   0.198430
     27       0.488503  -0.023776   0.005176  -0.008301   0.118067  -0.001377
     28      -0.128382  -0.076647   0.015864  -0.023267  -0.057317  -0.009943
     29       0.011119  -0.963005   0.203519  -0.296714   0.002760  -0.106203
     30      -0.037614   0.002722   0.024537   0.005659  -0.252846  -0.019109
     31      -0.294862   0.009570   0.072055   0.015678   0.079408  -0.044692
     32       0.021359   0.154853   0.956072   0.218863   0.017160  -0.603908
     33      -0.029036   0.002256   0.002516  -0.021295   0.152508   0.013806
     34       0.350919   0.012381   0.007096  -0.063263  -0.089254   0.033092
     35      -0.024271   0.146983   0.094070  -0.843911  -0.011838   0.448989
                 18         19         20         21         22         23    
      0      -0.004318  -0.180661  -0.002281  -0.262388  -0.102152  -0.032261
      1      -0.013169   0.024318  -0.006040  -0.099447  -0.084840   0.031920
      2      -0.173983   0.002887  -0.081416   0.014205   0.008772  -0.001579
      3      -0.001542   0.062210   0.003567   0.132075  -0.075910   0.054516
      4      -0.005240  -0.006218   0.009872  -0.131094   0.037106  -0.007658
      5      -0.066366  -0.001341   0.132046   0.006196  -0.000636  -0.000892
      6       0.000633   0.061884  -0.000379  -0.014862   0.141191  -0.032590
      7       0.001842  -0.100416  -0.000873   0.346219   0.076887  -0.027464
      8       0.024548   0.005929  -0.010064  -0.025826  -0.009394   0.002847
      9       0.000042  -0.095749  -0.000492   0.001921  -0.016742  -0.034481
     10       0.000191   0.059989  -0.001141  -0.037965   0.008654   0.122732
     11       0.001387  -0.002074  -0.015161   0.002715  -0.000365  -0.008179
     12      -0.001867   0.137455   0.000557   0.245090  -0.047658  -0.049779
     13      -0.005164   0.134894   0.000661  -0.216815  -0.010225  -0.107722
     14      -0.069292  -0.013726   0.007196   0.010120   0.002008   0.009377
     15       0.006966   0.059849  -0.000375  -0.064005   0.068765   0.120806
     16       0.020913  -0.049589  -0.001024   0.036934   0.002263   0.010228
     17       0.278336   0.002402  -0.013227  -0.001175  -0.001893  -0.003844
     18       0.000010  -0.065524  -0.000026  -0.053418  -0.020357   0.010183
     19      -0.000112  -0.065959   0.000093  -0.019236   0.012710  -0.003874
     20      -0.001364   0.006762   0.002957   0.002827  -0.000369  -0.000021
     21      -0.002108  -0.029287   0.000016   0.024826  -0.010149  -0.003991
     22      -0.005927  -0.047756   0.000119   0.084492  -0.011112  -0.005371
     23      -0.081352   0.004274   0.001365  -0.006916   0.001081   0.000508
     24       0.011585   0.318951  -0.020618  -0.050859   0.090280   0.498547
     25       0.034945   0.280039  -0.063819  -0.337683   0.238210   0.487679
     26       0.468809  -0.026813  -0.846338   0.028331  -0.021374  -0.049079
     27       0.000329   0.077227   0.000692  -0.175975   0.452992  -0.565893
     28       0.000717  -0.108422   0.004525   0.382549   0.040875   0.042443
     29       0.010079   0.004911   0.057402  -0.020207  -0.014074   0.011016
     30       0.005175   0.459678   0.000693   0.179675  -0.040688  -0.192067
     31       0.015677   0.575664   0.000372  -0.325193   0.001620  -0.306166
     32       0.207743  -0.054835  -0.004272   0.019844   0.000887   0.027773
     33       0.019689  -0.281798   0.011935  -0.405685   0.183755   0.011932
     34       0.058547   0.238920   0.038646   0.205725  -0.793709  -0.072104
     35       0.778821  -0.012420   0.499454  -0.006266   0.055842   0.005419
                 24         25         26         27         28         29    
      0      -0.035054  -0.043668   0.010556  -0.105324   0.106696   0.030800
      1       0.003025   0.132133   0.073066   0.089008  -0.085679   0.393587
      2       0.000651  -0.008793  -0.005742  -0.004019   0.003755  -0.030255
      3      -0.092078   0.025140   0.042517   0.065534  -0.208170  -0.169025
      4      -0.061087  -0.013147  -0.005174   0.046639  -0.009352  -0.459733
      5       0.006976   0.000245  -0.000645  -0.005242   0.005752   0.038787
      6       0.089659   0.085460   0.017210   0.029559   0.267788   0.013837
      7      -0.013604  -0.047581  -0.076079   0.003172   0.007145   0.110393
      8      -0.001240   0.001388   0.005283  -0.001052  -0.007388  -0.008721
      9      -0.038080  -0.034140  -0.096226   0.088158   0.027881   0.055322
     10       0.091013   0.065853   0.225900  -0.124381   0.033073  -0.094899
     11      -0.005908  -0.003915  -0.014573   0.007129  -0.003066   0.005625
     12      -0.071950  -0.060185   0.144838   0.009873   0.066591   0.011133
     13      -0.048352  -0.126524   0.023723   0.153191   0.032284   0.050770
     14       0.005486   0.011081  -0.005449  -0.011824  -0.004133  -0.004090
     15       0.186435  -0.016402  -0.137452   0.153819  -0.122330  -0.022478
     16       0.002936  -0.002692   0.017302   0.014545  -0.009941   0.064633
     17      -0.004923   0.000547   0.002157  -0.004899   0.003821  -0.004286
     18       0.012397   0.020911  -0.019824  -0.075265  -0.098656  -0.022171
     19       0.009163   0.015747  -0.055036  -0.016061  -0.032858   0.006447
     20      -0.001012  -0.001760   0.004683   0.003208   0.005084   0.000112
     21      -0.019468   0.022285   0.014754  -0.033901   0.011480   0.008259
     22       0.011601   0.018437  -0.048513  -0.082704   0.017166  -0.093517
     23      -0.000381  -0.001929   0.003260   0.007024  -0.001569   0.006790
     24      -0.289987  -0.358745  -0.173282  -0.337149  -0.028387   0.548143
     25      -0.286263  -0.458087  -0.267028  -0.403817   0.225292   0.265426
     26       0.028248   0.043343   0.024305   0.038942  -0.016373  -0.033966
     27       0.401948  -0.371129   0.321552  -0.530028  -0.809011   0.290508
     28      -0.054640   0.011484  -0.122712   0.076384   0.161558   0.082547
     29      -0.006118   0.008450   0.000452   0.008238   0.008802  -0.012211
     30      -0.186502   0.371650  -0.341568  -0.374787  -0.042886  -0.007217
     31      -0.202441   0.458415  -0.647377  -0.363154  -0.115106   0.028642
     32       0.019870  -0.044044   0.057442   0.036823   0.009637  -0.001986
     33      -0.312198   0.144401   0.173991   0.017521  -0.047971   0.298079
     34       0.647081  -0.305459  -0.298719  -0.222169   0.286143  -0.085326
     35      -0.040712   0.019512   0.018095   0.016301  -0.020049  -0.000979
                 30         31         32         33         34         35    
      0       0.029995   0.006969   0.013659  -0.079723   0.000414  -0.000359
      1      -0.145773  -0.021572   0.000948  -0.037149  -0.000217  -0.001122
      2       0.010136   0.001416  -0.000418   0.004802   0.000006   0.000090
      3       0.016766  -0.014045  -0.063830  -0.009968  -0.000042  -0.002101
      4       0.052307  -0.006652   0.059222   0.015617  -0.000224  -0.000521
      5      -0.004316   0.000769  -0.002881  -0.000927   0.000018   0.000087
      6      -0.011458   0.113010   0.001286   0.001128   0.000618   0.010308
      7      -0.010939   0.019187  -0.000427   0.000204  -0.000034   0.073196
      8       0.001177  -0.004342   0.000003  -0.000040  -0.000016  -0.006043
      9       0.104659  -0.629348   0.001241   0.000021  -0.000198   0.000902
     10       0.069230  -0.297042  -0.000657   0.000331  -0.001123  -0.000347
     11      -0.008007   0.039057   0.000017  -0.000026   0.000091  -0.000003
     12      -0.029571   0.077920   0.000023   0.000340  -0.058922   0.000509
     13      -0.102112   0.071820   0.000140  -0.000010   0.043752  -0.000795
     14       0.008467  -0.007420  -0.000011  -0.000008  -0.001795   0.000047
     15      -0.028663  -0.008459  -0.000125   0.002040   0.000676  -0.000372
     16       0.683722   0.138523  -0.000260  -0.002423   0.000302   0.000375
     17      -0.050424  -0.010164   0.000022   0.000132  -0.000039  -0.000018
     18      -0.059984   0.363476  -0.000279   0.000021  -0.000210   0.000121
     19      -0.025411   0.160886   0.000008  -0.000037  -0.000011   0.000163
     20       0.003482  -0.021701   0.000008   0.000001   0.000006  -0.000016
     21      -0.009983  -0.006394   0.000024  -0.000194  -0.000088   0.000049
     22      -0.406490  -0.092184   0.000172   0.000635   0.000159  -0.000248
     23       0.030633   0.007035  -0.000013  -0.000042  -0.000010   0.000020
     24      -0.046706  -0.006187   0.734921   0.123650  -0.000489   0.006555
     25      -0.009326  -0.003317  -0.648729  -0.114503   0.000435  -0.004510
     26       0.001926   0.000326   0.030692   0.005564  -0.000021   0.000199
     27       0.057671  -0.435591  -0.004322  -0.000639  -0.000539  -0.132388
     28      -0.013936   0.092387   0.009121   0.003934  -0.007210  -0.985006
     29      -0.000844   0.003922  -0.000610  -0.000304   0.000586   0.081379
     30       0.317498  -0.175850   0.000762  -0.000049   0.805036  -0.005263
     31       0.369373  -0.264945  -0.000342  -0.000091  -0.588138   0.003629
     32      -0.035823   0.024515   0.000007   0.000008   0.023772  -0.000135
     33      -0.110557  -0.018898  -0.160986   0.903560   0.000757   0.001092
     34       0.221757   0.045985  -0.064954   0.379972   0.000112   0.000400
     35      -0.013842  -0.002840   0.008953  -0.051361  -0.000031  -0.000050


-----------
IR SPECTRUM
-----------

 Mode    freq (cm**-1)   T**2         TX         TY         TZ
-------------------------------------------------------------------
   6:       155.03    1.582558  ( -0.034393  -0.081980  -1.254852)
   7:       173.38    0.000966  ( -0.010733   0.016772   0.023863)
   8:       393.58   20.572577  ( -3.324863   3.081645  -0.146034)
   9:       404.29   19.736175  ( -0.107409  -0.364595  -4.426252)
  10:       522.91   17.839009  (  1.973938   3.716153  -0.364392)
  11:       547.98    7.976400  ( -2.819703  -0.106836   0.119427)
  12:       566.20    2.652122  (  1.367863  -0.877976   0.101150)
  13:       587.81   47.079503  ( -0.179530  -0.661225  -6.827156)
  14:       699.23   58.368856  (  0.200937   0.590586   7.614439)
  15:       733.15    9.278772  ( -0.085287  -0.267311  -3.033157)
  16:       775.02    2.251536  (  0.164523   1.491377   0.016185)
  17:       784.74   48.900828  ( -0.170539  -0.515294  -6.971816)
  18:       824.26   69.124206  (  0.218611   0.624642   8.287716)
  19:       970.51    6.202317  ( -2.101227  -1.327719   0.155970)
  20:       978.88    0.140457  (  0.012258  -0.012623  -0.374362)
  21:       990.27    6.156310  (  1.815422  -1.689012   0.088263)
  22:      1085.83    6.613307  (  0.978579  -2.373499   0.148964)
  23:      1197.71   88.562450  (  4.753911   8.089403  -0.724111)
  24:      1222.34    1.182331  (  0.311818  -1.039819   0.062274)
  25:      1377.08   13.311306  ( -3.329863   1.490799  -0.028890)
  26:      1404.78   80.291755  ( -8.421978   3.059728  -0.010118)
  27:      1417.51   49.893556  (  5.992100  -3.737868   0.128970)
  28:      1506.93  122.475490  (-10.838026  -2.196854   0.431873)
  29:      1688.86   76.490782  ( -0.809957  -8.683589   0.655769)
  30:      1825.19  630.195933  (  6.632949  24.130760  -1.976452)
  31:      1858.91  541.288460  (-21.933719  -7.672133   1.157075)
  32:      3205.34    2.565290  ( -1.586315   0.219279   0.028511)
  33:      3247.24    1.381067  (  0.852996   0.803774  -0.086097)
  34:      3595.45   71.925347  (  6.648331  -5.260580   0.226580)
  35:      3630.43  113.030343  ( -0.860122 -10.562707   0.848389)

The first frequency considered to be a vibration is 6
The total number of vibrations considered is 30


--------------------------
THERMOCHEMISTRY AT 298.15K
--------------------------

Temperature         ... 298.15 K
Pressure            ... 1.00 atm
Total Mass          ... 112.09 AMU

Throughout the following assumptions are being made:
  (1) The electronic state is orbitally nondegenerate
  (2) There are no thermally accessible electronically excited states
  (3) Hindered rotations indicated by low frequency modes are not
      treated as such but are treated as vibrations and this may
      cause some error
  (4) All equations used are the standard statistical mechanics
      equations for an ideal gas
  (5) All vibrations are strictly harmonic

freq.     155.03  E(vib)   ...       0.40 
freq.     173.38  E(vib)   ...       0.38 
freq.     393.58  E(vib)   ...       0.20 
freq.     404.29  E(vib)   ...       0.19 
freq.     522.91  E(vib)   ...       0.13 
freq.     547.98  E(vib)   ...       0.12 
freq.     566.20  E(vib)   ...       0.11 
freq.     587.81  E(vib)   ...       0.10 
freq.     699.23  E(vib)   ...       0.07 
freq.     733.15  E(vib)   ...       0.06 
freq.     775.02  E(vib)   ...       0.05 
freq.     784.74  E(vib)   ...       0.05 
freq.     824.26  E(vib)   ...       0.04 
freq.     970.51  E(vib)   ...       0.03 
freq.     978.88  E(vib)   ...       0.03 
freq.     990.27  E(vib)   ...       0.02 
freq.    1085.83  E(vib)   ...       0.02 
freq.    1197.71  E(vib)   ...       0.01 
freq.    1222.34  E(vib)   ...       0.01 
freq.    1377.08  E(vib)   ...       0.01 
freq.    1404.78  E(vib)   ...       0.00 
freq.    1417.51  E(vib)   ...       0.00 
freq.    1506.93  E(vib)   ...       0.00 
freq.    1688.86  E(vib)   ...       0.00 
freq.    1825.19  E(vib)   ...       0.00 
freq.    1858.91  E(vib)   ...       0.00 
freq.    3205.34  E(vib)   ...       0.00 
freq.    3247.24  E(vib)   ...       0.00 
freq.    3595.45  E(vib)   ...       0.00 
freq.    3630.43  E(vib)   ...       0.00 

------------
INNER ENERGY
------------

The inner energy is: U= E(el) + E(ZPE) + E(vib) + E(rot) + E(trans)
    E(el)   - is the total energy from the electronic structure calculation
              = E(kin-el) + E(nuc-el) + E(el-el) + E(nuc-nuc)
    E(ZPE)  - the the zero temperature vibrational energy from the frequency calculation
    E(vib)  - the the finite temperature correction to E(ZPE) due to population
              of excited vibrational states
    E(rot)  - is the rotational thermal energy
    E(trans)- is the translational thermal energy

Summary of contributions to the inner energy U:
Electronic energy                ...   -414.30559182 Eh
Zero point energy                ...      0.08741528 Eh      54.85 kcal/mol
Thermal vibrational correction   ...      0.00326765 Eh       2.05 kcal/mol
Thermal rotational correction    ...      0.00141627 Eh       0.89 kcal/mol
Thermal translational correction ...      0.00141627 Eh       0.89 kcal/mol
-----------------------------------------------------------------------
Total thermal energy                   -414.21207636 Eh


Summary of corrections to the electronic energy:
(perhaps to be used in another calculation)
Total thermal correction                  0.00610019 Eh       3.83 kcal/mol
Non-thermal (ZPE) correction              0.08741528 Eh      54.85 kcal/mol
-----------------------------------------------------------------------
Total correction                          0.09351547 Eh      58.68 kcal/mol


--------
ENTHALPY
--------

The enthalpy is H = U + kB*T
                kB is Boltzmann's constant
Total free energy                 ...   -414.21207636 Eh 
Thermal Enthalpy correction       ...      0.00094421 Eh       0.59 kcal/mol
-----------------------------------------------------------------------
Total Enthalpy                    ...   -414.21113215 Eh


Note: Only C1 symmetry has been detected, increase convergence thresholds 
      if your molecule has a higher symmetry. Symmetry factor of 1.0 is   
      used for the rotational entropy correction. 
 

Note: Rotational entropy computed according to Herzberg 
Infrared and Raman Spectra, Chapter V,1, Van Nostrand Reinhold, 1945 
Point Group:  C1, Symmetry Number:   1  
Rotational constants in cm-1:     0.129035     0.066938     0.044074 

Vibrational entropy computed according to the QRRHO of S. Grimme
Chem.Eur.J. 2012 18 9955


-------
ENTROPY
-------

The entropy contributions are T*S = T*(S(el)+S(vib)+S(rot)+S(trans))
     S(el)   - electronic entropy
     S(vib)  - vibrational entropy
     S(rot)  - rotational entropy
     S(trans)- translational entropy
The entropies will be listed as mutliplied by the temperature to get
units of energy

Electronic entropy                ...      0.00000000 Eh      0.00 kcal/mol
Vibrational entropy               ...      0.00512503 Eh      3.22 kcal/mol
Rotational entropy                ...      0.01322783 Eh      8.30 kcal/mol
Translational entropy             ...      0.01903286 Eh     11.94 kcal/mol
-----------------------------------------------------------------------
Final entropy term                ...      0.03738571 Eh     23.46 kcal/mol

In case the symmetry of your molecule has not been determined correctly
or in case you have a reason to use a different symmetry number we print 
out the resulting rotational entropy values for sn=1,12 :
 --------------------------------------------------------
|  sn= 1 | S(rot)=       0.01322783 Eh      8.30 kcal/mol|
|  sn= 2 | S(rot)=       0.01257337 Eh      7.89 kcal/mol|
|  sn= 3 | S(rot)=       0.01219054 Eh      7.65 kcal/mol|
|  sn= 4 | S(rot)=       0.01191892 Eh      7.48 kcal/mol|
|  sn= 5 | S(rot)=       0.01170823 Eh      7.35 kcal/mol|
|  sn= 6 | S(rot)=       0.01153608 Eh      7.24 kcal/mol|
|  sn= 7 | S(rot)=       0.01139054 Eh      7.15 kcal/mol|
|  sn= 8 | S(rot)=       0.01126446 Eh      7.07 kcal/mol|
|  sn= 9 | S(rot)=       0.01115325 Eh      7.00 kcal/mol|
|  sn=10 | S(rot)=       0.01105377 Eh      6.94 kcal/mol|
|  sn=11 | S(rot)=       0.01096378 Eh      6.88 kcal/mol|
|  sn=12 | S(rot)=       0.01088163 Eh      6.83 kcal/mol|
 --------------------------------------------------------


-------------------
GIBBS FREE ENERGY
-------------------

The Gibbs free energy is G = H - T*S

Total enthalpy                    ...   -414.21113215 Eh 
Total entropy correction          ...     -0.03738571 Eh    -23.46 kcal/mol
-----------------------------------------------------------------------
Final Gibbs free energy         ...   -414.24851786 Eh

For completeness - the Gibbs free energy minus the electronic energy
G-E(el)                           ...      0.05707396 Eh     35.81 kcal/mol


Timings for individual modules:

Sum of individual times         ...      100.075 sec (=   1.668 min)
GTO integral calculation        ...        8.245 sec (=   0.137 min)   8.2 %
SCF iterations                  ...       34.414 sec (=   0.574 min)  34.4 %
SCF Gradient evaluation         ...        8.287 sec (=   0.138 min)   8.3 %
Geometry relaxation             ...        0.465 sec (=   0.008 min)   0.5 %
Analytical frequency calculation...       48.663 sec (=   0.811 min)  48.6 %
                             ****ORCA TERMINATED NORMALLY****
TOTAL RUN TIME: 0 days 0 hours 1 minutes 40 seconds 997 msec
