12
* (null), Energy   -1000.0000000
C     1.629965    0.315610   -0.065301    0.059756   -0.292861    0.020541
C     1.417359   -1.016714    0.040627    0.033725    0.105158   -0.008771
N     0.152106   -1.547217    0.113051   -0.021848   -0.021980    0.002228
C    -1.012934   -0.778188    0.084369    0.202225    0.135182   -0.015384
N    -0.757957    0.578797   -0.024165   -0.058481   -0.204085    0.016937
C     0.490659    1.235340   -0.105671   -0.056827    1.369208   -0.101806
O    -2.120393   -1.263598    0.148925   -0.115831   -0.049077    0.006646
O     0.547838    2.444022   -0.198224   -0.020092   -0.813140    0.061807
H     2.234675   -1.741152    0.074482   -0.094312   -0.019364    0.003864
H     0.004476   -2.547394    0.191756    0.110434   -0.027051   -0.000686
H    -1.579890    1.178069   -0.048486    0.634022    0.737158   -0.071918
H     2.631499    0.738614   -0.122607   -0.222925    0.446520   -0.027910
12
* Frequency(30) 1824.4569
C     1.636756    0.282328   -0.062967    0.059756   -0.292861    0.020541
C     1.421192   -1.004764    0.039630    0.033725    0.105158   -0.008771
N     0.149623   -1.549715    0.113305   -0.021848   -0.021980    0.002228
C    -0.989952   -0.762825    0.082621    0.202225    0.135182   -0.015384
N    -0.764603    0.555604   -0.022240   -0.058481   -0.204085    0.016937
C     0.484200    1.390943   -0.117241   -0.056827    1.369208   -0.101806
O    -2.133556   -1.269175    0.149680   -0.115831   -0.049077    0.006646
O     0.545555    2.351613   -0.191200   -0.020092   -0.813140    0.061807
H     2.223957   -1.743352    0.074921   -0.094312   -0.019364    0.003864
H     0.017027   -2.550468    0.191678    0.110434   -0.027051   -0.000686
H    -1.507836    1.261843   -0.056659    0.634022    0.737158   -0.071918
H     2.606165    0.789359   -0.125779   -0.222925    0.446520   -0.027910
12
* Frequency(30) 1824.4569
C     1.642811    0.252652   -0.060885    0.059756   -0.292861    0.020541
C     1.424609   -0.994108    0.038742    0.033725    0.105158   -0.008771
N     0.147409   -1.551942    0.113530   -0.021848   -0.021980    0.002228
C    -0.969461   -0.749127    0.081062    0.202225    0.135182   -0.015384
N    -0.770529    0.534924   -0.020524   -0.058481   -0.204085    0.016937
C     0.478442    1.529685   -0.127557   -0.056827    1.369208   -0.101806
O    -2.145293   -1.274148    0.150354   -0.115831   -0.049077    0.006646
O     0.543519    2.269218   -0.184937   -0.020092   -0.813140    0.061807
H     2.214400   -1.745314    0.075312   -0.094312   -0.019364    0.003864
H     0.028217   -2.553209    0.191608    0.110434   -0.027051   -0.000686
H    -1.443591    1.336539   -0.063946    0.634022    0.737158   -0.071918
H     2.583576    0.834605   -0.128607   -0.222925    0.446520   -0.027910
12
* Frequency(30) 1824.4569
C     1.647474    0.229799   -0.059282    0.059756   -0.292861    0.020541
C     1.427241   -0.985902    0.038057    0.033725    0.105158   -0.008771
N     0.145705   -1.553657    0.113704   -0.021848   -0.021980    0.002228
C    -0.953681   -0.738578    0.079862    0.202225    0.135182   -0.015384
N    -0.775092    0.518998   -0.019202   -0.058481   -0.204085    0.016937
C     0.474008    1.636529   -0.135501   -0.056827    1.369208   -0.101806
O    -2.154332   -1.277978    0.150872   -0.115831   -0.049077    0.006646
O     0.541951    2.205765   -0.180114   -0.020092   -0.813140    0.061807
H     2.207041   -1.746826    0.075614   -0.094312   -0.019364    0.003864
H     0.036835   -2.555320    0.191555    0.110434   -0.027051   -0.000686
H    -1.394116    1.394062   -0.069558    0.634022    0.737158   -0.071918
H     2.566180    0.869448   -0.130785   -0.222925    0.446520   -0.027910
12
* Frequency(30) 1824.4569
C     1.650239    0.216245   -0.058332    0.059756   -0.292861    0.020541
C     1.428801   -0.981035    0.037651    0.033725    0.105158   -0.008771
N     0.144693   -1.554674    0.113807   -0.021848   -0.021980    0.002228
C    -0.944321   -0.732322    0.079150    0.202225    0.135182   -0.015384
N    -0.777799    0.509553   -0.018418   -0.058481   -0.204085    0.016937
C     0.471378    1.699898   -0.140213   -0.056827    1.369208   -0.101806
O    -2.159693   -1.280249    0.151180   -0.115831   -0.049077    0.006646
O     0.541021    2.168132   -0.177253   -0.020092   -0.813140    0.061807
H     2.202676   -1.747722    0.075792   -0.094312   -0.019364    0.003864
H     0.041946   -2.556572    0.191523    0.110434   -0.027051   -0.000686
H    -1.364772    1.428179   -0.072887    0.634022    0.737158   -0.071918
H     2.555863    0.890114   -0.132077   -0.222925    0.446520   -0.027910
12
* Frequency(30) 1824.4569
C     1.650808    0.213459   -0.058136    0.059756   -0.292861    0.020541
C     1.429122   -0.980035    0.037568    0.033725    0.105158   -0.008771
N     0.144485   -1.554884    0.113829   -0.021848   -0.021980    0.002228
C    -0.942397   -0.731036    0.079003    0.202225    0.135182   -0.015384
N    -0.778355    0.507611   -0.018257   -0.058481   -0.204085    0.016937
C     0.470837    1.712926   -0.141181   -0.056827    1.369208   -0.101806
O    -2.160795   -1.280716    0.151243   -0.115831   -0.049077    0.006646
O     0.540830    2.160395   -0.176665   -0.020092   -0.813140    0.061807
H     2.201778   -1.747906    0.075829   -0.094312   -0.019364    0.003864
H     0.042996   -2.556830    0.191516    0.110434   -0.027051   -0.000686
H    -1.358740    1.435193   -0.073571    0.634022    0.737158   -0.071918
H     2.553742    0.894362   -0.132342   -0.222925    0.446520   -0.027910
12
* Frequency(30) 1824.4569
C     1.649118    0.221742   -0.058717    0.059756   -0.292861    0.020541
C     1.428168   -0.983009    0.037816    0.033725    0.105158   -0.008771
N     0.145103   -1.554262    0.113766   -0.021848   -0.021980    0.002228
C    -0.948117   -0.734859    0.079439    0.202225    0.135182   -0.015384
N    -0.776701    0.513383   -0.018736   -0.058481   -0.204085    0.016937
C     0.472444    1.674199   -0.138302   -0.056827    1.369208   -0.101806
O    -2.157519   -1.279328    0.151055   -0.115831   -0.049077    0.006646
O     0.541399    2.183394   -0.178413   -0.020092   -0.813140    0.061807
H     2.204446   -1.747358    0.075720   -0.094312   -0.019364    0.003864
H     0.039873   -2.556065    0.191536    0.110434   -0.027051   -0.000686
H    -1.376673    1.414343   -0.071537    0.634022    0.737158   -0.071918
H     2.560047    0.881733   -0.131553   -0.222925    0.446520   -0.027910
12
* Frequency(30) 1824.4569
C     1.645352    0.240197   -0.060012    0.059756   -0.292861    0.020541
C     1.426043   -0.989636    0.038369    0.033725    0.105158   -0.008771
N     0.146480   -1.552877    0.113625   -0.021848   -0.021980    0.002228
C    -0.960861   -0.743378    0.080408    0.202225    0.135182   -0.015384
N    -0.773016    0.526244   -0.019804   -0.058481   -0.204085    0.016937
C     0.476025    1.587915   -0.131886   -0.056827    1.369208   -0.101806
O    -2.150220   -1.276235    0.150636   -0.115831   -0.049077    0.006646
O     0.542665    2.234636   -0.182308   -0.020092   -0.813140    0.061807
H     2.210389   -1.746138    0.075476   -0.094312   -0.019364    0.003864
H     0.032914   -2.554360    0.191579    0.110434   -0.027051   -0.000686
H    -1.416627    1.367889   -0.067005    0.634022    0.737158   -0.071918
H     2.574095    0.853595   -0.129794   -0.222925    0.446520   -0.027910
12
* Frequency(30) 1824.4569
C     1.639919    0.266825   -0.061879    0.059756   -0.292861    0.020541
C     1.422977   -0.999197    0.039166    0.033725    0.105158   -0.008771
N     0.148467   -1.550878    0.113423   -0.021848   -0.021980    0.002228
C    -0.979247   -0.755669    0.081807    0.202225    0.135182   -0.015384
N    -0.767699    0.544800   -0.021343   -0.058481   -0.204085    0.016937
C     0.481192    1.463425   -0.122630   -0.056827    1.369208   -0.101806
O    -2.139688   -1.271773    0.150032   -0.115831   -0.049077    0.006646
O     0.544492    2.308568   -0.187928   -0.020092   -0.813140    0.061807
H     2.218964   -1.744377    0.075125   -0.094312   -0.019364    0.003864
H     0.022873   -2.551900    0.191641    0.110434   -0.027051   -0.000686
H    -1.474273    1.300866   -0.060466    0.634022    0.737158   -0.071918
H     2.594364    0.812996   -0.127256   -0.222925    0.446520   -0.027910
12
* Frequency(30) 1824.4569
C     1.633407    0.298739   -0.064118    0.059756   -0.292861    0.020541
C     1.419302   -1.010656    0.040122    0.033725    0.105158   -0.008771
N     0.150848   -1.548483    0.113180   -0.021848   -0.021980    0.002228
C    -1.001284   -0.770400    0.083483    0.202225    0.135182   -0.015384
N    -0.761326    0.567040   -0.023189   -0.058481   -0.204085    0.016937
C     0.487385    1.314217   -0.111536   -0.056827    1.369208   -0.101806
O    -2.127065   -1.266425    0.149308   -0.115831   -0.049077    0.006646
O     0.546681    2.397179   -0.194663   -0.020092   -0.813140    0.061807
H     2.229242   -1.742267    0.074704   -0.094312   -0.019364    0.003864
H     0.010838   -2.548953    0.191716    0.110434   -0.027051   -0.000686
H    -1.543365    1.220535   -0.052629    0.634022    0.737158   -0.071918
H     2.618657    0.764337   -0.124215   -0.222925    0.446520   -0.027910
12
* Frequency(30) 1824.4569
C     1.626523    0.332481   -0.066484    0.059756   -0.292861    0.020541
C     1.415416   -1.022772    0.041132    0.033725    0.105158   -0.008771
N     0.153365   -1.545951    0.112923   -0.021848   -0.021980    0.002228
C    -1.024584   -0.785975    0.085256    0.202225    0.135182   -0.015384
N    -0.754588    0.590554   -0.025140   -0.058481   -0.204085    0.016937
C     0.493932    1.156462   -0.099806   -0.056827    1.369208   -0.101806
O    -2.113720   -1.260771    0.148542   -0.115831   -0.049077    0.006646
O     0.548996    2.490865   -0.201784   -0.020092   -0.813140    0.061807
H     2.240108   -1.740036    0.074259   -0.094312   -0.019364    0.003864
H    -0.001886   -2.545836    0.191795    0.110434   -0.027051   -0.000686
H    -1.616415    1.135602   -0.044342    0.634022    0.737158   -0.071918
H     2.644341    0.712891   -0.120999   -0.222925    0.446520   -0.027910
12
* Frequency(30) 1824.4569
C     1.620011    0.364395   -0.068723    0.059756   -0.292861    0.020541
C     1.411741   -1.034232    0.042088    0.033725    0.105158   -0.008771
N     0.155746   -1.543556    0.112680   -0.021848   -0.021980    0.002228
C    -1.046621   -0.800707    0.086932    0.202225    0.135182   -0.015384
N    -0.748215    0.612794   -0.026986   -0.058481   -0.204085    0.016937
C     0.500125    1.007255   -0.088712   -0.056827    1.369208   -0.101806
O    -2.101097   -1.255423    0.147818   -0.115831   -0.049077    0.006646
O     0.551185    2.579476   -0.208519   -0.020092   -0.813140    0.061807
H     2.250386   -1.737926    0.073838   -0.094312   -0.019364    0.003864
H    -0.013920   -2.542888    0.191870    0.110434   -0.027051   -0.000686
H    -1.685506    1.055272   -0.036505    0.634022    0.737158   -0.071918
H     2.668634    0.664232   -0.117958   -0.222925    0.446520   -0.027910
12
* Frequency(30) 1824.4569
C     1.614578    0.391023   -0.070590    0.059756   -0.292861    0.020541
C     1.408675   -1.043793    0.042886    0.033725    0.105158   -0.008771
N     0.157732   -1.541557    0.112478   -0.021848   -0.021980    0.002228
C    -1.065008   -0.812998    0.088331    0.202225    0.135182   -0.015384
N    -0.742898    0.631350   -0.028526   -0.058481   -0.204085    0.016937
C     0.505292    0.882764   -0.079455   -0.056827    1.369208   -0.101806
O    -2.090566   -1.250960    0.147213   -0.115831   -0.049077    0.006646
O     0.553012    2.653408   -0.214139   -0.020092   -0.813140    0.061807
H     2.258961   -1.736165    0.073487   -0.094312   -0.019364    0.003864
H    -0.023961   -2.540429    0.191932    0.110434   -0.027051   -0.000686
H    -1.743153    0.988248   -0.029966    0.634022    0.737158   -0.071918
H     2.688903    0.623634   -0.115420   -0.222925    0.446520   -0.027910
12
* Frequency(30) 1824.4569
C     1.610812    0.409478   -0.071885    0.059756   -0.292861    0.020541
C     1.406550   -1.050420    0.043438    0.033725    0.105158   -0.008771
N     0.159109   -1.540172    0.112337   -0.021848   -0.021980    0.002228
C    -1.077751   -0.821517    0.089300    0.202225    0.135182   -0.015384
N    -0.739212    0.644210   -0.029593   -0.058481   -0.204085    0.016937
C     0.508873    0.796481   -0.073040   -0.056827    1.369208   -0.101806
O    -2.083266   -1.247868    0.146794   -0.115831   -0.049077    0.006646
O     0.554278    2.704650   -0.218034   -0.020092   -0.813140    0.061807
H     2.264904   -1.734945    0.073243   -0.094312   -0.019364    0.003864
H    -0.030920   -2.538724    0.191976    0.110434   -0.027051   -0.000686
H    -1.783107    0.941794   -0.025434    0.634022    0.737158   -0.071918
H     2.702951    0.595495   -0.113662   -0.222925    0.446520   -0.027910
12
* Frequency(30) 1824.4569
C     1.609122    0.417761   -0.072466    0.059756   -0.292861    0.020541
C     1.405596   -1.053394    0.043686    0.033725    0.105158   -0.008771
N     0.159727   -1.539550    0.112274   -0.021848   -0.021980    0.002228
C    -1.083471   -0.825340    0.089735    0.202225    0.135182   -0.015384
N    -0.737558    0.649983   -0.030072   -0.058481   -0.204085    0.016937
C     0.510480    0.757754   -0.070160   -0.056827    1.369208   -0.101806
O    -2.079990   -1.246480    0.146606   -0.115831   -0.049077    0.006646
O     0.554847    2.727649   -0.219782   -0.020092   -0.813140    0.061807
H     2.267571   -1.734397    0.073134   -0.094312   -0.019364    0.003864
H    -0.034044   -2.537959    0.191995    0.110434   -0.027051   -0.000686
H    -1.801040    0.920944   -0.023400    0.634022    0.737158   -0.071918
H     2.709257    0.582866   -0.112872   -0.222925    0.446520   -0.027910
12
* Frequency(30) 1824.4569
C     1.609690    0.414975   -0.072270    0.059756   -0.292861    0.020541
C     1.405917   -1.052393    0.043603    0.033725    0.105158   -0.008771
N     0.159519   -1.539759    0.112295   -0.021848   -0.021980    0.002228
C    -1.081547   -0.824054    0.089589    0.202225    0.135182   -0.015384
N    -0.738115    0.648041   -0.029911   -0.058481   -0.204085    0.016937
C     0.509940    0.770781   -0.071129   -0.056827    1.369208   -0.101806
O    -2.081092   -1.246946    0.146670   -0.115831   -0.049077    0.006646
O     0.554655    2.719912   -0.219194   -0.020092   -0.813140    0.061807
H     2.266674   -1.734581    0.073171   -0.094312   -0.019364    0.003864
H    -0.032993   -2.538216    0.191989    0.110434   -0.027051   -0.000686
H    -1.795007    0.927958   -0.024084    0.634022    0.737158   -0.071918
H     2.707136    0.587115   -0.113138   -0.222925    0.446520   -0.027910
12
* Frequency(30) 1824.4569
C     1.612456    0.401421   -0.071320    0.059756   -0.292861    0.020541
C     1.407477   -1.047526    0.043197    0.033725    0.105158   -0.008771
N     0.158508   -1.540777    0.112399   -0.021848   -0.021980    0.002228
C    -1.072188   -0.817797    0.088877    0.202225    0.135182   -0.015384
N    -0.740821    0.638596   -0.029127   -0.058481   -0.204085    0.016937
C     0.507310    0.834151   -0.075841   -0.056827    1.369208   -0.101806
O    -2.086453   -1.249218    0.146977   -0.115831   -0.049077    0.006646
O     0.553726    2.682279   -0.216333   -0.020092   -0.813140    0.061807
H     2.262309   -1.735478    0.073349   -0.094312   -0.019364    0.003864
H    -0.027882   -2.539468    0.191957    0.110434   -0.027051   -0.000686
H    -1.765664    0.962075   -0.027413    0.634022    0.737158   -0.071918
H     2.696818    0.607780   -0.114429   -0.222925    0.446520   -0.027910
12
* Frequency(30) 1824.4569
C     1.617119    0.378568   -0.069717    0.059756   -0.292861    0.020541
C     1.410109   -1.039321    0.042513    0.033725    0.105158   -0.008771
N     0.156803   -1.542492    0.112572   -0.021848   -0.021980    0.002228
C    -1.056407   -0.807249    0.087676    0.202225    0.135182   -0.015384
N    -0.745385    0.622670   -0.027806   -0.058481   -0.204085    0.016937
C     0.502875    0.940995   -0.083785   -0.056827    1.369208   -0.101806
O    -2.095492   -1.253048    0.147496   -0.115831   -0.049077    0.006646
O     0.552158    2.618826   -0.211510   -0.020092   -0.813140    0.061807
H     2.254950   -1.736989    0.073651   -0.094312   -0.019364    0.003864
H    -0.019264   -2.541579    0.191903    0.110434   -0.027051   -0.000686
H    -1.716188    1.019598   -0.033025    0.634022    0.737158   -0.071918
H     2.679422    0.642624   -0.116607   -0.222925    0.446520   -0.027910
12
* Frequency(30) 1824.4569
C     1.623174    0.348892   -0.067635    0.059756   -0.292861    0.020541
C     1.413526   -1.028665    0.041624    0.033725    0.105158   -0.008771
N     0.154589   -1.544719    0.112798   -0.021848   -0.021980    0.002228
C    -1.035916   -0.793551    0.086118    0.202225    0.135182   -0.015384
N    -0.751311    0.601990   -0.026090   -0.058481   -0.204085    0.016937
C     0.497117    1.079737   -0.094101   -0.056827    1.369208   -0.101806
O    -2.107229   -1.258020    0.148169   -0.115831   -0.049077    0.006646
O     0.550122    2.536431   -0.205248   -0.020092   -0.813140    0.061807
H     2.245393   -1.738951    0.074042   -0.094312   -0.019364    0.003864
H    -0.008074   -2.544320    0.191834    0.110434   -0.027051   -0.000686
H    -1.651943    1.094294   -0.040312    0.634022    0.737158   -0.071918
H     2.656833    0.687870   -0.119435   -0.222925    0.446520   -0.027910
12
* Frequency(30) 1824.4569
C     1.629965    0.315610   -0.065301    0.059756   -0.292861    0.020541
C     1.417359   -1.016714    0.040627    0.033725    0.105158   -0.008771
N     0.152106   -1.547217    0.113051   -0.021848   -0.021980    0.002228
C    -1.012934   -0.778188    0.084369    0.202225    0.135182   -0.015384
N    -0.757957    0.578797   -0.024165   -0.058481   -0.204085    0.016937
C     0.490659    1.235340   -0.105671   -0.056827    1.369208   -0.101806
O    -2.120393   -1.263598    0.148925   -0.115831   -0.049077    0.006646
O     0.547838    2.444022   -0.198224   -0.020092   -0.813140    0.061807
H     2.234675   -1.741152    0.074482   -0.094312   -0.019364    0.003864
H     0.004476   -2.547394    0.191756    0.110434   -0.027051   -0.000686
H    -1.579890    1.178069   -0.048486    0.634022    0.737158   -0.071918
H     2.631499    0.738614   -0.122607   -0.222925    0.446520   -0.027910
