12
* (null), Energy   -1000.0000000
C     1.326706    0.515754   -0.072626    0.648929    0.068036   -0.022081
C     1.114284   -0.816584    0.032594    0.319770    0.186748   -0.020991
N    -0.151041   -1.347120    0.103530    0.018843    0.746388   -0.055820
C    -1.315628   -0.577682    0.076752   -0.384961    0.280595   -0.010225
N    -1.060936    0.779065   -0.032267   -0.157872    0.024109    0.000995
C     0.187706    1.435734   -0.112929    0.162544   -0.562650    0.037043
O    -2.423226   -1.063291    0.142349   -0.229560   -0.147993    0.017649
O     0.244598    2.644464   -0.204665   -0.260416   -0.608257    0.052525
H     1.931646   -1.540867    0.066907   -0.099885   -0.291043    0.026298
H    -0.299216   -2.347153    0.186398    0.061851    0.743752   -0.079003
H    -1.882973    1.378347   -0.056429    0.366287    0.731759   -0.063235
H     2.328081    0.939334   -0.129643    0.488118    0.437005   -0.042336
12
* Frequency(10)  522.9066
C     1.400453    0.523486   -0.075135    0.648929    0.068036   -0.022081
C     1.150624   -0.795361    0.030209    0.319770    0.186748   -0.020991
N    -0.148900   -1.262297    0.097186    0.018843    0.746388   -0.055820
C    -1.359377   -0.545794    0.075590   -0.384961    0.280595   -0.010225
N    -1.078877    0.781804   -0.032154   -0.157872    0.024109    0.000995
C     0.206178    1.371792   -0.108720    0.162544   -0.562650    0.037043
O    -2.449314   -1.080109    0.144354   -0.229560   -0.147993    0.017649
O     0.215003    2.575339   -0.198696   -0.260416   -0.608257    0.052525
H     1.920295   -1.573943    0.069896   -0.099885   -0.291043    0.026298
H    -0.292187   -2.262630    0.177419    0.061851    0.743752   -0.079003
H    -1.841347    1.461507   -0.063615    0.366287    0.731759   -0.063235
H     2.383553    0.988997   -0.134455    0.488118    0.437005   -0.042336
12
* Frequency(10)  522.9066
C     1.466209    0.530380   -0.077373    0.648929    0.068036   -0.022081
C     1.183026   -0.776438    0.028082    0.319770    0.186748   -0.020991
N    -0.146990   -1.186666    0.091530    0.018843    0.746388   -0.055820
C    -1.398385   -0.517361    0.074554   -0.384961    0.280595   -0.010225
N    -1.094874    0.784247   -0.032053   -0.157872    0.024109    0.000995
C     0.222649    1.314779   -0.104966    0.162544   -0.562650    0.037043
O    -2.472576   -1.095106    0.146143   -0.229560   -0.147993    0.017649
O     0.188615    2.513705   -0.193374   -0.260416   -0.608257    0.052525
H     1.910173   -1.603434    0.072561   -0.099885   -0.291043    0.026298
H    -0.285920   -2.187266    0.169414    0.061851    0.743752   -0.079003
H    -1.804231    1.535656   -0.070023    0.366287    0.731759   -0.063235
H     2.433014    1.033279   -0.138745    0.488118    0.437005   -0.042336
12
* Frequency(10)  522.9066
C     1.516847    0.535689   -0.079096    0.648929    0.068036   -0.022081
C     1.207979   -0.761865    0.026444    0.319770    0.186748   -0.020991
N    -0.145520   -1.128422    0.087174    0.018843    0.746388   -0.055820
C    -1.428425   -0.495465    0.073756   -0.384961    0.280595   -0.010225
N    -1.107193    0.786129   -0.031975   -0.157872    0.024109    0.000995
C     0.235333    1.270873   -0.102075    0.162544   -0.562650    0.037043
O    -2.490489   -1.106654    0.147520   -0.229560   -0.147993    0.017649
O     0.168294    2.466240   -0.189275   -0.260416   -0.608257    0.052525
H     1.902379   -1.626145    0.074613   -0.099885   -0.291043    0.026298
H    -0.281093   -2.129228    0.163249    0.061851    0.743752   -0.079003
H    -1.775648    1.592758   -0.074957    0.366287    0.731759   -0.063235
H     2.471103    1.067380   -0.142048    0.488118    0.437005   -0.042336
12
* Frequency(10)  522.9066
C     1.546881    0.538838   -0.080118    0.648929    0.068036   -0.022081
C     1.222778   -0.753222    0.025472    0.319770    0.186748   -0.020991
N    -0.144648   -1.093878    0.084590    0.018843    0.746388   -0.055820
C    -1.446242   -0.482479    0.073283   -0.384961    0.280595   -0.010225
N    -1.114500    0.787244   -0.031929   -0.157872    0.024109    0.000995
C     0.242856    1.244832   -0.100361    0.162544   -0.562650    0.037043
O    -2.501114   -1.113503    0.148337   -0.229560   -0.147993    0.017649
O     0.156242    2.438089   -0.186844   -0.260416   -0.608257    0.052525
H     1.897756   -1.639615    0.075830   -0.099885   -0.291043    0.026298
H    -0.278231   -2.094805    0.159593    0.061851    0.743752   -0.079003
H    -1.758695    1.626625   -0.077884    0.366287    0.731759   -0.063235
H     2.493694    1.087605   -0.144008    0.488118    0.437005   -0.042336
12
* Frequency(10)  522.9066
C     1.553055    0.539485   -0.080328    0.648929    0.068036   -0.022081
C     1.225821   -0.751445    0.025273    0.319770    0.186748   -0.020991
N    -0.144469   -1.086776    0.084059    0.018843    0.746388   -0.055820
C    -1.449904   -0.479809    0.073185   -0.384961    0.280595   -0.010225
N    -1.116002    0.787474   -0.031920   -0.157872    0.024109    0.000995
C     0.244402    1.239479   -0.100008    0.162544   -0.562650    0.037043
O    -2.503298   -1.114912    0.148505   -0.229560   -0.147993    0.017649
O     0.153764    2.432301   -0.186344   -0.260416   -0.608257    0.052525
H     1.896806   -1.642385    0.076080   -0.099885   -0.291043    0.026298
H    -0.277642   -2.087729    0.158841    0.061851    0.743752   -0.079003
H    -1.755210    1.633588   -0.078486    0.366287    0.731759   -0.063235
H     2.498338    1.091763   -0.144410    0.488118    0.437005   -0.042336
12
* Frequency(10)  522.9066
C     1.534701    0.537561   -0.079703    0.648929    0.068036   -0.022081
C     1.216777   -0.756727    0.025866    0.319770    0.186748   -0.020991
N    -0.145002   -1.107887    0.085638    0.018843    0.746388   -0.055820
C    -1.439016   -0.487745    0.073474   -0.384961    0.280595   -0.010225
N    -1.111537    0.786792   -0.031948   -0.157872    0.024109    0.000995
C     0.239805    1.255393   -0.101056    0.162544   -0.562650    0.037043
O    -2.496805   -1.110726    0.148005   -0.229560   -0.147993    0.017649
O     0.161129    2.449505   -0.187830   -0.260416   -0.608257    0.052525
H     1.899631   -1.634153    0.075336   -0.099885   -0.291043    0.026298
H    -0.279392   -2.108765    0.161076    0.061851    0.743752   -0.079003
H    -1.765570    1.612891   -0.076697    0.366287    0.731759   -0.063235
H     2.484533    1.079403   -0.143213    0.488118    0.437005   -0.042336
12
* Frequency(10)  522.9066
C     1.493807    0.533273   -0.078312    0.648929    0.068036   -0.022081
C     1.196625   -0.768495    0.027189    0.319770    0.186748   -0.020991
N    -0.146189   -1.154923    0.089156    0.018843    0.746388   -0.055820
C    -1.414757   -0.505428    0.074119   -0.384961    0.280595   -0.010225
N    -1.101588    0.785273   -0.032011   -0.157872    0.024109    0.000995
C     0.229562    1.290850   -0.103391    0.162544   -0.562650    0.037043
O    -2.482339   -1.101400    0.146893   -0.229560   -0.147993    0.017649
O     0.177540    2.487836   -0.191140   -0.260416   -0.608257    0.052525
H     1.905925   -1.615812    0.073679   -0.099885   -0.291043    0.026298
H    -0.283289   -2.155635    0.166054    0.061851    0.743752   -0.079003
H    -1.788653    1.566777   -0.072712    0.366287    0.731759   -0.063235
H     2.453773    1.051864   -0.140545    0.488118    0.437005   -0.042336
12
* Frequency(10)  522.9066
C     1.434806    0.527087   -0.076304    0.648929    0.068036   -0.022081
C     1.167551   -0.785475    0.029098    0.319770    0.186748   -0.020991
N    -0.147902   -1.222785    0.094231    0.018843    0.746388   -0.055820
C    -1.379756   -0.530940    0.075049   -0.384961    0.280595   -0.010225
N    -1.087234    0.783081   -0.032101   -0.157872    0.024109    0.000995
C     0.214783    1.342007   -0.106759    0.162544   -0.562650    0.037043
O    -2.461467   -1.087944    0.145289   -0.229560   -0.147993    0.017649
O     0.201218    2.543140   -0.195915   -0.260416   -0.608257    0.052525
H     1.915007   -1.589350    0.071288   -0.099885   -0.291043    0.026298
H    -0.288913   -2.223258    0.173237    0.061851    0.743752   -0.079003
H    -1.821956    1.500244   -0.066963    0.366287    0.731759   -0.063235
H     2.409392    1.012131   -0.136696    0.488118    0.437005   -0.042336
12
* Frequency(10)  522.9066
C     1.364090    0.519673   -0.073898    0.648929    0.068036   -0.022081
C     1.132705   -0.805825    0.031385    0.319770    0.186748   -0.020991
N    -0.149956   -1.304122    0.100314    0.018843    0.746388   -0.055820
C    -1.337805   -0.561517    0.076163   -0.384961    0.280595   -0.010225
N    -1.070030    0.780453   -0.032210   -0.157872    0.024109    0.000995
C     0.197070    1.403321   -0.110795    0.162544   -0.562650    0.037043
O    -2.436451   -1.071816    0.143365   -0.229560   -0.147993    0.017649
O     0.229596    2.609424   -0.201639   -0.260416   -0.608257    0.052525
H     1.925892   -1.557634    0.068422   -0.099885   -0.291043    0.026298
H    -0.295653   -2.304307    0.181847    0.061851    0.743752   -0.079003
H    -1.861872    1.420502   -0.060072    0.366287    0.731759   -0.063235
H     2.356200    0.964509   -0.132082    0.488118    0.437005   -0.042336
12
* Frequency(10)  522.9066
C     1.289322    0.511834   -0.071354    0.648929    0.068036   -0.022081
C     1.095862   -0.827342    0.033804    0.319770    0.186748   -0.020991
N    -0.152127   -1.390118    0.106745    0.018843    0.746388   -0.055820
C    -1.293451   -0.593846    0.077341   -0.384961    0.280595   -0.010225
N    -1.051841    0.777676   -0.032324   -0.157872    0.024109    0.000995
C     0.178342    1.468147   -0.115063    0.162544   -0.562650    0.037043
O    -2.410002   -1.054765    0.141332   -0.229560   -0.147993    0.017649
O     0.259600    2.679505   -0.207691   -0.260416   -0.608257    0.052525
H     1.937400   -1.524101    0.065392   -0.099885   -0.291043    0.026298
H    -0.302779   -2.389999    0.190949    0.061851    0.743752   -0.079003
H    -1.904074    1.336191   -0.052786    0.366287    0.731759   -0.063235
H     2.299961    0.914159   -0.127204    0.488118    0.437005   -0.042336
12
* Frequency(10)  522.9066
C     1.218606    0.504420   -0.068948    0.648929    0.068036   -0.022081
C     1.061016   -0.847693    0.036091    0.319770    0.186748   -0.020991
N    -0.154180   -1.471455    0.112828    0.018843    0.746388   -0.055820
C    -1.251501   -0.624424    0.078455   -0.384961    0.280595   -0.010225
N    -1.034637    0.775049   -0.032433   -0.157872    0.024109    0.000995
C     0.160629    1.529461   -0.119100    0.162544   -0.562650    0.037043
O    -2.384986   -1.038638    0.139409   -0.229560   -0.147993    0.017649
O     0.287979    2.745789   -0.213415   -0.260416   -0.608257    0.052525
H     1.948285   -1.492385    0.062527   -0.099885   -0.291043    0.026298
H    -0.309519   -2.471049    0.199558    0.061851    0.743752   -0.079003
H    -1.943990    1.256449   -0.045895    0.366287    0.731759   -0.063235
H     2.246769    0.866537   -0.122591    0.488118    0.437005   -0.042336
12
* Frequency(10)  522.9066
C     1.159605    0.498234   -0.066940    0.648929    0.068036   -0.022081
C     1.031942   -0.864672    0.037999    0.319770    0.186748   -0.020991
N    -0.155894   -1.539317    0.117904    0.018843    0.746388   -0.055820
C    -1.216499   -0.649936    0.079385   -0.384961    0.280595   -0.010225
N    -1.020283    0.772857   -0.032523   -0.157872    0.024109    0.000995
C     0.145850    1.580618   -0.122468    0.162544   -0.562650    0.037043
O    -2.364114   -1.025182    0.137804   -0.229560   -0.147993    0.017649
O     0.311656    2.801092   -0.218190   -0.260416   -0.608257    0.052525
H     1.957367   -1.465923    0.060135   -0.099885   -0.291043    0.026298
H    -0.315143   -2.538672    0.206741    0.061851    0.743752   -0.079003
H    -1.977293    1.189916   -0.040145    0.366287    0.731759   -0.063235
H     2.202389    0.826804   -0.118742    0.488118    0.437005   -0.042336
12
* Frequency(10)  522.9066
C     1.118711    0.493947   -0.065548    0.648929    0.068036   -0.022081
C     1.011790   -0.876440    0.039322    0.319770    0.186748   -0.020991
N    -0.157081   -1.586353    0.121421    0.018843    0.746388   -0.055820
C    -1.192240   -0.667618    0.080029   -0.384961    0.280595   -0.010225
N    -1.010335    0.771337   -0.032586   -0.157872    0.024109    0.000995
C     0.135607    1.616075   -0.124802    0.162544   -0.562650    0.037043
O    -2.349647   -1.015856    0.136692   -0.229560   -0.147993    0.017649
O     0.328067    2.839423   -0.221500   -0.260416   -0.608257    0.052525
H     1.963661   -1.447582    0.058478   -0.099885   -0.291043    0.026298
H    -0.319041   -2.585541    0.211720    0.061851    0.743752   -0.079003
H    -2.000376    1.143803   -0.036160    0.366287    0.731759   -0.063235
H     2.171629    0.799265   -0.116074    0.488118    0.437005   -0.042336
12
* Frequency(10)  522.9066
C     1.100357    0.492022   -0.064924    0.648929    0.068036   -0.022081
C     1.002746   -0.881722    0.039916    0.319770    0.186748   -0.020991
N    -0.157614   -1.607464    0.123000    0.018843    0.746388   -0.055820
C    -1.181352   -0.675555    0.080319   -0.384961    0.280595   -0.010225
N    -1.005869    0.770655   -0.032614   -0.157872    0.024109    0.000995
C     0.131010    1.631989   -0.125850    0.162544   -0.562650    0.037043
O    -2.343154   -1.011670    0.136192   -0.229560   -0.147993    0.017649
O     0.335433    2.856627   -0.222986   -0.260416   -0.608257    0.052525
H     1.966486   -1.439350    0.057734   -0.099885   -0.291043    0.026298
H    -0.320790   -2.606578    0.213954    0.061851    0.743752   -0.079003
H    -2.010736    1.123106   -0.034372    0.366287    0.731759   -0.063235
H     2.157823    0.786905   -0.114876    0.488118    0.437005   -0.042336
12
* Frequency(10)  522.9066
C     1.106531    0.492670   -0.065134    0.648929    0.068036   -0.022081
C     1.005789   -0.879946    0.039716    0.319770    0.186748   -0.020991
N    -0.157435   -1.600362    0.122469    0.018843    0.746388   -0.055820
C    -1.185015   -0.672885    0.080221   -0.384961    0.280595   -0.010225
N    -1.007371    0.770885   -0.032605   -0.157872    0.024109    0.000995
C     0.132556    1.626636   -0.125498    0.162544   -0.562650    0.037043
O    -2.345339   -1.013078    0.136360   -0.229560   -0.147993    0.017649
O     0.332955    2.850840   -0.222486   -0.260416   -0.608257    0.052525
H     1.965536   -1.442119    0.057985   -0.099885   -0.291043    0.026298
H    -0.320202   -2.599501    0.213202    0.061851    0.743752   -0.079003
H    -2.007251    1.130068   -0.034974    0.366287    0.731759   -0.063235
H     2.162467    0.791063   -0.115279    0.488118    0.437005   -0.042336
12
* Frequency(10)  522.9066
C     1.136564    0.495818   -0.066156    0.648929    0.068036   -0.022081
C     1.020588   -0.871302    0.038745    0.319770    0.186748   -0.020991
N    -0.156563   -1.565818    0.119886    0.018843    0.746388   -0.055820
C    -1.202831   -0.659898    0.079748   -0.384961    0.280595   -0.010225
N    -1.014678    0.772001   -0.032559   -0.157872    0.024109    0.000995
C     0.140079    1.600595   -0.123783    0.162544   -0.562650    0.037043
O    -2.355963   -1.019928    0.137177   -0.229560   -0.147993    0.017649
O     0.320902    2.822689   -0.220055   -0.260416   -0.608257    0.052525
H     1.960913   -1.455589    0.059202   -0.099885   -0.291043    0.026298
H    -0.317339   -2.565079    0.209546    0.061851    0.743752   -0.079003
H    -1.990298    1.163935   -0.037900    0.366287    0.731759   -0.063235
H     2.185058    0.811288   -0.117238    0.488118    0.437005   -0.042336
12
* Frequency(10)  522.9066
C     1.187203    0.501128   -0.067879    0.648929    0.068036   -0.022081
C     1.045541   -0.856730    0.037107    0.319770    0.186748   -0.020991
N    -0.155092   -1.507574    0.115530    0.018843    0.746388   -0.055820
C    -1.232871   -0.638003    0.078950   -0.384961    0.280595   -0.010225
N    -1.026997    0.773882   -0.032481   -0.157872    0.024109    0.000995
C     0.152763    1.556689   -0.120893    0.162544   -0.562650    0.037043
O    -2.373877   -1.031476    0.138554   -0.229560   -0.147993    0.017649
O     0.300581    2.775224   -0.215957   -0.260416   -0.608257    0.052525
H     1.953119   -1.478301    0.061254   -0.099885   -0.291043    0.026298
H    -0.312513   -2.507041    0.203381    0.061851    0.743752   -0.079003
H    -1.961716    1.221037   -0.042835    0.366287    0.731759   -0.063235
H     2.223148    0.845389   -0.120542    0.488118    0.437005   -0.042336
12
* Frequency(10)  522.9066
C     1.252959    0.508022   -0.070116    0.648929    0.068036   -0.022081
C     1.077943   -0.837807    0.034980    0.319770    0.186748   -0.020991
N    -0.153183   -1.431943    0.109873    0.018843    0.746388   -0.055820
C    -1.271879   -0.609570    0.077914   -0.384961    0.280595   -0.010225
N    -1.042994    0.776325   -0.032380   -0.157872    0.024109    0.000995
C     0.169234    1.499676   -0.117139    0.162544   -0.562650    0.037043
O    -2.397138   -1.046472    0.140343   -0.229560   -0.147993    0.017649
O     0.274193    2.713589   -0.210634   -0.260416   -0.608257    0.052525
H     1.942998   -1.507792    0.063919   -0.099885   -0.291043    0.026298
H    -0.306245   -2.431677    0.195376    0.061851    0.743752   -0.079003
H    -1.924600    1.295186   -0.049242    0.366287    0.731759   -0.063235
H     2.272609    0.889671   -0.124832    0.488118    0.437005   -0.042336
12
* Frequency(10)  522.9066
C     1.326706    0.515754   -0.072626    0.648929    0.068036   -0.022081
C     1.114284   -0.816584    0.032594    0.319770    0.186748   -0.020991
N    -0.151041   -1.347120    0.103530    0.018843    0.746388   -0.055820
C    -1.315628   -0.577682    0.076752   -0.384961    0.280595   -0.010225
N    -1.060936    0.779065   -0.032267   -0.157872    0.024109    0.000995
C     0.187706    1.435734   -0.112929    0.162544   -0.562650    0.037043
O    -2.423226   -1.063291    0.142349   -0.229560   -0.147993    0.017649
O     0.244598    2.644464   -0.204665   -0.260416   -0.608257    0.052525
H     1.931646   -1.540867    0.066907   -0.099885   -0.291043    0.026298
H    -0.299216   -2.347153    0.186398    0.061851    0.743752   -0.079003
H    -1.882973    1.378347   -0.056429    0.366287    0.731759   -0.063235
H     2.328081    0.939334   -0.129643    0.488118    0.437005   -0.042336
