12
* (null), Energy   -1000.0000000
C     1.629965    0.315610   -0.065301   -0.535938   -0.198371    0.028904
C     1.417359   -1.016714    0.040627    0.269413   -0.264132    0.012284
N     0.152106   -1.547217    0.113051   -0.026019    0.688654   -0.050986
C    -1.012934   -0.778188    0.084369   -0.001338   -0.072701    0.005422
N    -0.757957    0.578797   -0.024165    0.498101   -0.427321    0.019543
C     0.490659    1.235340   -0.105671   -0.125266    0.071503   -0.002052
O    -2.120393   -1.263598    0.148925   -0.111427   -0.042209    0.006012
O     0.547838    2.444022   -0.198224    0.048387    0.167605   -0.013873
H     2.234675   -1.741152    0.074482   -0.081690   -0.660699    0.056251
H     0.004476   -2.547394    0.191756   -0.349695    0.760424   -0.049587
H    -1.579890    1.178069   -0.048486    0.384710   -0.620704    0.036536
H     2.631499    0.738614   -0.122607   -0.828330    0.424550   -0.012441
12
* Frequency(21)  990.5236
C     1.569058    0.293066   -0.062016   -0.535938   -0.198371    0.028904
C     1.447976   -1.046731    0.042023    0.269413   -0.264132    0.012284
N     0.149149   -1.468955    0.107257   -0.026019    0.688654   -0.050986
C    -1.013086   -0.786450    0.084986   -0.001338   -0.072701    0.005422
N    -0.701350    0.530234   -0.021944    0.498101   -0.427321    0.019543
C     0.476423    1.243466   -0.105904   -0.125266    0.071503   -0.002052
O    -2.133056   -1.268395    0.149608   -0.111427   -0.042209    0.006012
O     0.553337    2.463070   -0.199800    0.048387    0.167605   -0.013873
H     2.225391   -1.816237    0.080874   -0.081690   -0.660699    0.056251
H    -0.035265   -2.460976    0.186120   -0.349695    0.760424   -0.049587
H    -1.536170    1.107529   -0.044333    0.384710   -0.620704    0.036536
H     2.537364    0.786862   -0.124021   -0.828330    0.424550   -0.012441
12
* Frequency(21)  990.5236
C     1.514752    0.272965   -0.059087   -0.535938   -0.198371    0.028904
C     1.475276   -1.073496    0.043268    0.269413   -0.264132    0.012284
N     0.146513   -1.399174    0.102091   -0.026019    0.688654   -0.050986
C    -1.013222   -0.793817    0.085535   -0.001338   -0.072701    0.005422
N    -0.650878    0.486934   -0.019963    0.498101   -0.427321    0.019543
C     0.463730    1.250711   -0.106112   -0.125266    0.071503   -0.002052
O    -2.144347   -1.272672    0.150217   -0.111427   -0.042209    0.006012
O     0.558240    2.480053   -0.201206    0.048387    0.167605   -0.013873
H     2.217114   -1.883185    0.086574   -0.081690   -0.660699    0.056251
H    -0.070699   -2.383922    0.181096   -0.349695    0.760424   -0.049587
H    -1.497187    1.044633   -0.040631    0.384710   -0.620704    0.036536
H     2.453429    0.829882   -0.125282   -0.828330    0.424550   -0.012441
12
* Frequency(21)  990.5236
C     1.472931    0.257486   -0.056832   -0.535938   -0.198371    0.028904
C     1.496299   -1.094107    0.044226    0.269413   -0.264132    0.012284
N     0.144482   -1.345436    0.098112   -0.026019    0.688654   -0.050986
C    -1.013326   -0.799490    0.085958   -0.001338   -0.072701    0.005422
N    -0.612009    0.453588   -0.018438    0.498101   -0.427321    0.019543
C     0.453955    1.256291   -0.106272   -0.125266    0.071503   -0.002052
O    -2.153042   -1.275965    0.150686   -0.111427   -0.042209    0.006012
O     0.562016    2.493132   -0.202289    0.048387    0.167605   -0.013873
H     2.210739   -1.934742    0.090963   -0.081690   -0.660699    0.056251
H    -0.097987   -2.324584    0.177226   -0.349695    0.760424   -0.049587
H    -1.467167    0.996197   -0.037780    0.384710   -0.620704    0.036536
H     2.388792    0.863011   -0.126253   -0.828330    0.424550   -0.012441
12
* Frequency(21)  990.5236
C     1.448126    0.248305   -0.055494   -0.535938   -0.198371    0.028904
C     1.508768   -1.106332    0.044795    0.269413   -0.264132    0.012284
N     0.143278   -1.313563    0.095752   -0.026019    0.688654   -0.050986
C    -1.013388   -0.802855    0.086209   -0.001338   -0.072701    0.005422
N    -0.588956    0.433811   -0.017534    0.498101   -0.427321    0.019543
C     0.448157    1.259600   -0.106367   -0.125266    0.071503   -0.002052
O    -2.158199   -1.277919    0.150965   -0.111427   -0.042209    0.006012
O     0.564256    2.500889   -0.202931    0.048387    0.167605   -0.013873
H     2.206958   -1.965320    0.093567   -0.081690   -0.660699    0.056251
H    -0.114172   -2.289390    0.174931   -0.349695    0.760424   -0.049587
H    -1.449362    0.967470   -0.036089    0.384710   -0.620704    0.036536
H     2.350455    0.882660   -0.126828   -0.828330    0.424550   -0.012441
12
* Frequency(21)  990.5236
C     1.443027    0.246417   -0.055219   -0.535938   -0.198371    0.028904
C     1.511331   -1.108845    0.044912    0.269413   -0.264132    0.012284
N     0.143031   -1.307011    0.095267   -0.026019    0.688654   -0.050986
C    -1.013401   -0.803546    0.086261   -0.001338   -0.072701    0.005422
N    -0.584217    0.429745   -0.017348    0.498101   -0.427321    0.019543
C     0.446965    1.260280   -0.106387   -0.125266    0.071503   -0.002052
O    -2.159259   -1.278320    0.151022   -0.111427   -0.042209    0.006012
O     0.564716    2.502484   -0.203063    0.048387    0.167605   -0.013873
H     2.206181   -1.971606    0.094102   -0.081690   -0.660699    0.056251
H    -0.117499   -2.282155    0.174460   -0.349695    0.760424   -0.049587
H    -1.445701    0.961564   -0.035742    0.384710   -0.620704    0.036536
H     2.342574    0.886699   -0.126947   -0.828330    0.424550   -0.012441
12
* Frequency(21)  990.5236
C     1.458186    0.252028   -0.056037   -0.535938   -0.198371    0.028904
C     1.503711   -1.101374    0.044564    0.269413   -0.264132    0.012284
N     0.143767   -1.326489    0.096709   -0.026019    0.688654   -0.050986
C    -1.013363   -0.801490    0.086107   -0.001338   -0.072701    0.005422
N    -0.598305    0.441832   -0.017901    0.498101   -0.427321    0.019543
C     0.450508    1.258258   -0.106329   -0.125266    0.071503   -0.002052
O    -2.156107   -1.277127    0.150852   -0.111427   -0.042209    0.006012
O     0.563348    2.497743   -0.202670    0.048387    0.167605   -0.013873
H     2.208492   -1.952919    0.092511   -0.081690   -0.660699    0.056251
H    -0.107608   -2.303663    0.175862   -0.349695    0.760424   -0.049587
H    -1.456582    0.979120   -0.036775    0.384710   -0.620704    0.036536
H     2.366002    0.874691   -0.126595   -0.828330    0.424550   -0.012441
12
* Frequency(21)  990.5236
C     1.491959    0.264529   -0.057858   -0.535938   -0.198371    0.028904
C     1.486734   -1.084729    0.043790    0.269413   -0.264132    0.012284
N     0.145406   -1.369886    0.099922   -0.026019    0.688654   -0.050986
C    -1.013279   -0.796909    0.085766   -0.001338   -0.072701    0.005422
N    -0.629694    0.468760   -0.019132    0.498101   -0.427321    0.019543
C     0.458402    1.253752   -0.106199   -0.125266    0.071503   -0.002052
O    -2.149086   -1.274467    0.150473   -0.111427   -0.042209    0.006012
O     0.560298    2.487181   -0.201796    0.048387    0.167605   -0.013873
H     2.213640   -1.911284    0.088966   -0.081690   -0.660699    0.056251
H    -0.085571   -2.351582    0.178987   -0.349695    0.760424   -0.049587
H    -1.480826    1.018235   -0.039077    0.384710   -0.620704    0.036536
H     2.418201    0.847937   -0.125811   -0.828330    0.424550   -0.012441
12
* Frequency(21)  990.5236
C     1.540688    0.282565   -0.060486   -0.535938   -0.198371    0.028904
C     1.462238   -1.060714    0.042673    0.269413   -0.264132    0.012284
N     0.147772   -1.432500    0.104558   -0.026019    0.688654   -0.050986
C    -1.013157   -0.790298    0.085273   -0.001338   -0.072701    0.005422
N    -0.674982    0.507613   -0.020909    0.498101   -0.427321    0.019543
C     0.469792    1.247251   -0.106013   -0.125266    0.071503   -0.002052
O    -2.138954   -1.270629    0.149926   -0.111427   -0.042209    0.006012
O     0.555899    2.471942   -0.200535    0.048387    0.167605   -0.013873
H     2.221067   -1.851212    0.083852   -0.081690   -0.660699    0.056251
H    -0.053776   -2.420722    0.183496   -0.349695    0.760424   -0.049587
H    -1.515804    1.074671   -0.042399    0.384710   -0.620704    0.036536
H     2.493515    0.809336   -0.124680   -0.828330    0.424550   -0.012441
12
* Frequency(21)  990.5236
C     1.599091    0.304182   -0.063636   -0.535938   -0.198371    0.028904
C     1.432879   -1.031930    0.041335    0.269413   -0.264132    0.012284
N     0.150607   -1.507545    0.110114   -0.026019    0.688654   -0.050986
C    -1.013011   -0.782376    0.084682   -0.001338   -0.072701    0.005422
N    -0.729262    0.554180   -0.023039    0.498101   -0.427321    0.019543
C     0.483442    1.239459   -0.105789   -0.125266    0.071503   -0.002052
O    -2.126812   -1.266029    0.149271   -0.111427   -0.042209    0.006012
O     0.550626    2.453677   -0.199023    0.048387    0.167605   -0.013873
H     2.229969   -1.779213    0.077722   -0.081690   -0.660699    0.056251
H    -0.015669   -2.503588    0.188899   -0.349695    0.760424   -0.049587
H    -1.557727    1.142311   -0.046381    0.384710   -0.620704    0.036536
H     2.583781    0.763072   -0.123324   -0.828330    0.424550   -0.012441
12
* Frequency(21)  990.5236
C     1.660839    0.327038   -0.066966   -0.535938   -0.198371    0.028904
C     1.401839   -1.001498    0.039919    0.269413   -0.264132    0.012284
N     0.153605   -1.586889    0.115989   -0.026019    0.688654   -0.050986
C    -1.012857   -0.774000    0.084057   -0.001338   -0.072701    0.005422
N    -0.786651    0.603414   -0.025291    0.498101   -0.427321    0.019543
C     0.497875    1.231221   -0.105553   -0.125266    0.071503   -0.002052
O    -2.113974   -1.261166    0.148578   -0.111427   -0.042209    0.006012
O     0.545051    2.434367   -0.197424    0.048387    0.167605   -0.013873
H     2.239381   -1.703090    0.071241   -0.081690   -0.660699    0.056251
H     0.024622   -2.591201    0.194612   -0.349695    0.760424   -0.049587
H    -1.602052    1.213826   -0.050590    0.384710   -0.620704    0.036536
H     2.679218    0.714157   -0.121890   -0.828330    0.424550   -0.012441
12
* Frequency(21)  990.5236
C     1.719242    0.348655   -0.070116   -0.535938   -0.198371    0.028904
C     1.372480   -0.972715    0.038581    0.269413   -0.264132    0.012284
N     0.156440   -1.661934    0.121545   -0.026019    0.688654   -0.050986
C    -1.012711   -0.766077    0.083466   -0.001338   -0.072701    0.005422
N    -0.840931    0.649981   -0.027420    0.498101   -0.427321    0.019543
C     0.511526    1.223429   -0.105329   -0.125266    0.071503   -0.002052
O    -2.101831   -1.256567    0.147923   -0.111427   -0.042209    0.006012
O     0.539778    2.416102   -0.195913    0.048387    0.167605   -0.013873
H     2.248283   -1.631091    0.065111   -0.081690   -0.660699    0.056251
H     0.062729   -2.674067    0.200016   -0.349695    0.760424   -0.049587
H    -1.643975    1.281466   -0.054572    0.384710   -0.620704    0.036536
H     2.769484    0.667892   -0.120535   -0.828330    0.424550   -0.012441
12
* Frequency(21)  990.5236
C     1.767971    0.366691   -0.072744   -0.535938   -0.198371    0.028904
C     1.347984   -0.948699    0.037464    0.269413   -0.264132    0.012284
N     0.158806   -1.724548    0.126180   -0.026019    0.688654   -0.050986
C    -1.012590   -0.759467    0.082973   -0.001338   -0.072701    0.005422
N    -0.886219    0.688834   -0.029197    0.498101   -0.427321    0.019543
C     0.522915    1.216928   -0.105142   -0.125266    0.071503   -0.002052
O    -2.091700   -1.252729    0.147377   -0.111427   -0.042209    0.006012
O     0.535379    2.400863   -0.194651    0.048387    0.167605   -0.013873
H     2.255710   -1.571019    0.059997   -0.081690   -0.660699    0.056251
H     0.094524   -2.743206    0.204525   -0.349695    0.760424   -0.049587
H    -1.678954    1.337902   -0.057894    0.384710   -0.620704    0.036536
H     2.844797    0.629291   -0.119404   -0.828330    0.424550   -0.012441
12
* Frequency(21)  990.5236
C     1.801744    0.379192   -0.074565   -0.535938   -0.198371    0.028904
C     1.331007   -0.932054    0.036690    0.269413   -0.264132    0.012284
N     0.160446   -1.767945    0.129393   -0.026019    0.688654   -0.050986
C    -1.012505   -0.754886    0.082631   -0.001338   -0.072701    0.005422
N    -0.917608    0.715762   -0.030429    0.498101   -0.427321    0.019543
C     0.530809    1.212422   -0.105013   -0.125266    0.071503   -0.002052
O    -2.084678   -1.250069    0.146998   -0.111427   -0.042209    0.006012
O     0.532329    2.390301   -0.193777    0.048387    0.167605   -0.013873
H     2.260858   -1.529384    0.056452   -0.081690   -0.660699    0.056251
H     0.116561   -2.791126    0.207649   -0.349695    0.760424   -0.049587
H    -1.703197    1.377017   -0.060196    0.384710   -0.620704    0.036536
H     2.896996    0.602537   -0.118620   -0.828330    0.424550   -0.012441
12
* Frequency(21)  990.5236
C     1.816903    0.384803   -0.075383   -0.535938   -0.198371    0.028904
C     1.323387   -0.924584    0.036343    0.269413   -0.264132    0.012284
N     0.161182   -1.787423    0.130835   -0.026019    0.688654   -0.050986
C    -1.012468   -0.752829    0.082478   -0.001338   -0.072701    0.005422
N    -0.931697    0.727849   -0.030982    0.498101   -0.427321    0.019543
C     0.534352    1.210399   -0.104955   -0.125266    0.071503   -0.002052
O    -2.081526   -1.248875    0.146828   -0.111427   -0.042209    0.006012
O     0.530961    2.385561   -0.193385    0.048387    0.167605   -0.013873
H     2.263169   -1.510697    0.054861   -0.081690   -0.660699    0.056251
H     0.126452   -2.812634    0.209052   -0.349695    0.760424   -0.049587
H    -1.714078    1.394573   -0.061229    0.384710   -0.620704    0.036536
H     2.920424    0.590529   -0.118268   -0.828330    0.424550   -0.012441
12
* Frequency(21)  990.5236
C     1.811804    0.382915   -0.075108   -0.535938   -0.198371    0.028904
C     1.325950   -0.927097    0.036459    0.269413   -0.264132    0.012284
N     0.160934   -1.780871    0.130350   -0.026019    0.688654   -0.050986
C    -1.012480   -0.753521    0.082530   -0.001338   -0.072701    0.005422
N    -0.926957    0.723783   -0.030796    0.498101   -0.427321    0.019543
C     0.533160    1.211080   -0.104975   -0.125266    0.071503   -0.002052
O    -2.082587   -1.249277    0.146885   -0.111427   -0.042209    0.006012
O     0.531421    2.387155   -0.193517    0.048387    0.167605   -0.013873
H     2.262391   -1.516983    0.055396   -0.081690   -0.660699    0.056251
H     0.123125   -2.805399    0.208580   -0.349695    0.760424   -0.049587
H    -1.710418    1.388667   -0.060882    0.384710   -0.620704    0.036536
H     2.912543    0.594569   -0.118386   -0.828330    0.424550   -0.012441
12
* Frequency(21)  990.5236
C     1.786999    0.373734   -0.073770   -0.535938   -0.198371    0.028904
C     1.338419   -0.939321    0.037028    0.269413   -0.264132    0.012284
N     0.159730   -1.748998    0.127991   -0.026019    0.688654   -0.050986
C    -1.012542   -0.756886    0.082781   -0.001338   -0.072701    0.005422
N    -0.903904    0.704006   -0.029891    0.498101   -0.427321    0.019543
C     0.527363    1.214389   -0.105070   -0.125266    0.071503   -0.002052
O    -2.087744   -1.251230    0.147163   -0.111427   -0.042209    0.006012
O     0.533661    2.394912   -0.194159    0.048387    0.167605   -0.013873
H     2.258611   -1.547561    0.058000   -0.081690   -0.660699    0.056251
H     0.106940   -2.770205    0.206285   -0.349695    0.760424   -0.049587
H    -1.692613    1.359940   -0.059191    0.384710   -0.620704    0.036536
H     2.874207    0.614218   -0.118962   -0.828330    0.424550   -0.012441
12
* Frequency(21)  990.5236
C     1.745178    0.358255   -0.071514   -0.535938   -0.198371    0.028904
C     1.359442   -0.959933    0.037986    0.269413   -0.264132    0.012284
N     0.157700   -1.695260    0.124012   -0.026019    0.688654   -0.050986
C    -1.012647   -0.762559    0.083204   -0.001338   -0.072701    0.005422
N    -0.865036    0.670660   -0.028366    0.498101   -0.427321    0.019543
C     0.517588    1.219969   -0.105230   -0.125266    0.071503   -0.002052
O    -2.096439   -1.254524    0.147632   -0.111427   -0.042209    0.006012
O     0.537436    2.407991   -0.195241    0.048387    0.167605   -0.013873
H     2.252236   -1.599118    0.062389   -0.081690   -0.660699    0.056251
H     0.079652   -2.710866    0.202416   -0.349695    0.760424   -0.049587
H    -1.662593    1.311504   -0.056340    0.384710   -0.620704    0.036536
H     2.809569    0.647347   -0.119933   -0.828330    0.424550   -0.012441
12
* Frequency(21)  990.5236
C     1.690872    0.338154   -0.068586   -0.535938   -0.198371    0.028904
C     1.386742   -0.986697    0.039231    0.269413   -0.264132    0.012284
N     0.155063   -1.625479    0.118846   -0.026019    0.688654   -0.050986
C    -1.012782   -0.769926    0.083753   -0.001338   -0.072701    0.005422
N    -0.814563    0.627360   -0.026386    0.498101   -0.427321    0.019543
C     0.504894    1.227214   -0.105438   -0.125266    0.071503   -0.002052
O    -2.107730   -1.258801    0.148242   -0.111427   -0.042209    0.006012
O     0.542339    2.424975   -0.196647    0.048387    0.167605   -0.013873
H     2.243959   -1.666067    0.068089   -0.081690   -0.660699    0.056251
H     0.044217   -2.633813    0.197391   -0.349695    0.760424   -0.049587
H    -1.623610    1.248608   -0.052638    0.384710   -0.620704    0.036536
H     2.725635    0.690366   -0.121193   -0.828330    0.424550   -0.012441
12
* Frequency(21)  990.5236
C     1.629965    0.315610   -0.065301   -0.535938   -0.198371    0.028904
C     1.417359   -1.016714    0.040627    0.269413   -0.264132    0.012284
N     0.152106   -1.547217    0.113051   -0.026019    0.688654   -0.050986
C    -1.012934   -0.778188    0.084369   -0.001338   -0.072701    0.005422
N    -0.757957    0.578797   -0.024165    0.498101   -0.427321    0.019543
C     0.490659    1.235340   -0.105671   -0.125266    0.071503   -0.002052
O    -2.120393   -1.263598    0.148925   -0.111427   -0.042209    0.006012
O     0.547838    2.444022   -0.198224    0.048387    0.167605   -0.013873
H     2.234675   -1.741152    0.074482   -0.081690   -0.660699    0.056251
H     0.004476   -2.547394    0.191756   -0.349695    0.760424   -0.049587
H    -1.579890    1.178069   -0.048486    0.384710   -0.620704    0.036536
H     2.631499    0.738614   -0.122607   -0.828330    0.424550   -0.012441
