
                                 *****************
                                 * O   R   C   A *
                                 *****************

                                            #,                                       
                                            ###                                      
                                            ####                                     
                                            #####                                    
                                            ######                                   
                                           ########,                                 
                                     ,,################,,,,,                         
                               ,,#################################,,                 
                          ,,##########################################,,             
                       ,#########################################, ''#####,          
                    ,#############################################,,   '####,        
                  ,##################################################,,,,####,       
                ,###########''''           ''''###############################       
              ,#####''   ,,,,##########,,,,          '''####'''          '####       
            ,##' ,,,,###########################,,,                        '##       
           ' ,,###''''                  '''############,,,                           
         ,,##''                                '''############,,,,        ,,,,,,###''
      ,#''                                            '''#######################'''  
     '                                                          ''''####''''         
             ,#######,   #######,   ,#######,      ##                                
            ,#'     '#,  ##    ##  ,#'     '#,    #''#        ,####,    ,#,          
            ##       ##  ##   ,#'  ##            #'  '#       #'       ,# #          
            ##       ##  #######   ##           ,######,      #####,      #          
            '#,     ,#'  ##    ##  '#,     ,#' ,#      #,     #,   #      #          
             '#######'   ##     ##  '#######'  #'      '#     '####' #    #          



                #########################################################
                #                        -***-                          #
                #          Department of theory and spectroscopy        #
                #                                                       #
                #                      Frank Neese                      #
                #                                                       #
                #     Directorship, Architecture, Infrastructure        #
                #                    SHARK, DRIVERS                     #
                #        Core code/Algorithms in most modules           #
                #                                                       #
                #        Max Planck Institute fuer Kohlenforschung      #
                #                Kaiser Wilhelm Platz 1                 #
                #                 D-45470 Muelheim/Ruhr                 #
                #                      Germany                          #
                #                                                       #
                #                  All rights reserved                  #
                #                        -***-                          #
                #########################################################


                         Program Version 6.1.0-f.0  -   RELEASE   -


 With contributions from (in alphabetic order):
[Max-Planck-Institut fuer Kohlenforschung]                               
  Daniel Aravena         : Magnetic Suceptibility                        
  Michael Atanasov       : Ab Initio Ligand Field Theory (pilot matlab implementation)
  Alexander A. Auer      : GIAO ZORA, VPT2 properties, NMR spectrum      
  Ute Becker             : All parallelization in ORCA, NUMFREQ, NUMCALC 
  Giovanni Bistoni       : ED, misc. LED, open-shell LED, HFLD           
  Dmytro Bykov           : pre 5.0 version of the SCF Hessian            
  Marcos Casanova-Páez   : Triplet and SCS-CIS(D). UHF-(DLPNO)-IP/EA/STEOM-CCSD. UHF-CVS-IP/STEOM-CCSD   
  Vijay G. Chilkuri      : MRCI spin determinant printing, contributions to CSF-ICE 
  Pauline Colinet        : FMM embedding                                 
  Dipayan Datta          : RHF DLPNO-CCSD density                        
  Achintya Kumar Dutta   : EOM-CC, STEOM-CC                              
  Nicolas Foglia         : Exact transition moments, OPA infrastructure, MCD improvements    
  Dmitry Ganyushin       : Spin-Orbit,Spin-Spin,Magnetic field MRCI      
  Miquel Garcia-Rates    : C-PCM and meta-GGA Hessian, CCSD/C-PCM, Gaussian charge scheme 
  Tiago L. C. Gouveia    : GS-ROHF, GS-ROCIS                             
  Yang Guo               : DLPNO-NEVPT2, F12-NEVPT2, CIM, IAO-localization        
  Andreas Hansen         : Spin unrestricted coupled pair/coupled cluster methods 
  Ingolf Harden          : AUTO-CI MPn and infrastructure                
  Benjamin Helmich-Paris : MC-RPA, TRAH-(SCF,CASSCF), AVAS, COSX integrals, SCF dyn. polar., MC-PDFT, srDFT 
  Lee Huntington         : MR-EOM, pCC                                   
  Robert Izsak           : Overlap fitted RIJCOSX, COSX-SCS-MP3, EOM     
  Riya Kayal             : Wick's Theorem for AUTO-CI, AUTO-CI UHF-CCSDT 
  Emily Kempfer          : AUTO-CI RHF CISDT and CCSDT, approximate NEVPT4
  Christian Kollmar      : KDIIS, OOCD, Brueckner-CCSD(T), CCSD density, CASPT2, CASPT2-K, improved NEVPT2 
  Axel Koslowski         : Symmetry handling                             
  Simone Kossmann        : meta-GGA functionals, TD-DFT gradient, OOMP2, (MP2 Hessian; deprecated post 5.0) 
  Lucas Lang             : DCDCAS, Hyperfine gauge corrections, ICE-SOC+SSC
  Marvin Lechner         : AUTO-CI (C++ implementation), FIC-MRCC        
  Spencer Leger          : CASSCF response                               
  Dagmar Lenk            : GEPOL surface, SMD, ORCA-2-JSON               
  Dimitrios Liakos       : Extrapolation schemes; Compound Job, Property file
  Dimitrios Manganas     : Further ROCIS development; embedding schemes. LFT, Crystal Embedding 
  Dimitrios Pantazis     : SARC Basis sets                               
  Anastasios Papadopoulos: AUTO-CI, single reference methods and gradients 
  Taras Petrenko         : pre 6.0 DFT Hessian and TD-DFT gradient,  ECA, NRVS 
  Petra Pikulova         : Analytic Raman intensities                    
  Peter Pinski           : DLPNO-MP2, DLPNO-MP2 Gradient                 
  Shashank Vittal Rao    : ES-AILFT, MagRelax                            
  Christoph Reimann      : Effective Core Potentials                     
  Marius Retegan         : Local ZFS, SOC                                
  Christoph Riplinger    : Optimizer, TS searches, QM/MM, DLPNO-CCSD(T), (RO)-DLPNO pert. Triples 
  Michael Roemelt        : Original ROCIS implementation, recursive CI coupling coefficients
  Masaaki Saitow         : Open-shell DLPNO-CCSD energy and density      
  Barbara Sandhoefer     : DKH picture change effects                    
  Yorick L. A. Schmerwitz: GMF and freeze-and-release deltaSCF, NEB S-IDPP initial path                    
  Kantharuban Sivalingam : CASSCF convergence/infrastructure, NEVPT2, NEVPT3, NEVPT4(SD), FIC-MRCI and CEPA variants
  Bernardo de Souza      : ESD, SOC TD-DFT                               
  Georgi L. Stoychev     : AutoAux, RI-MP2 NMR, DLPNO-MP2 response, X2C  
  Van Anh Tran           : RI-MP2 g-tensors                              
  Willem Van den Heuvel  : Paramagnetic NMR                              
  Zikuan Wang            : NOTCH, Electric field optimization            
  Frank Wennmohs         : Technical directorship and infrastructure     
  Hang Xu                : AUTO-CI-Response properties                   
                                                                         
[FACCTs GmbH]                                                            
  Markus Bursch, Nicolas Foglia, Miquel Garcia-Rates, Ingolf Harden, Hagen Neugebauer, Anastasios Papadopoulos, 
  Christoph Riplinger, Bernardo de Souza, Georgi L. Stoychev                                                    
                                                                 
  APM, various basis sets, CI-OPT, improved COSX, DLPNO-Multilevel,           
  DOCKER, DRACO, updates on ESD, Fragmentator, GOAT, IRC, LR-CPCM, L-BFGS, MBIS, meta-GGA TD-DFT gradient, ML-optimized integration grids, 
  MM, NACMEs, nearIR, NEB, NEB-TS, NL-DFT gradient (VV10), 2- and 3-layer-ONIOM, interface openCOSMO-RS, QMMM,   
  Crystal-QMMM, RESP, rigid body optimization, SF, symmetry and pop. for TD-DFT, various functionals, SOLVATOR                                   
                                                                         
[Other institutions]                                                     
  V. Asgeirsson          : NEB                                           
  Christoph Bannwarth    : sTDA-DFT, sTD-DFT, PBEh-3c, B97-3c, D3        
  Giovanni Bistoni       : ETS/NOCV, ADLD/ADEX, COVALED                  
  Martin Brehm           : Molecular dynamics                            
  Ronald Cardenas        : ETS/NOCV                                      
  Martina Colucci        : COVALED                                       
  Sebastian Ehlert       : rSCAN, r2SCAN, r2SCAN-3c, D4, dhf basis sets  
  Marvin Friede          : D4 for Fr, Ra, Ac-Lr                          
  Lars Goerigk           : TD-DFT with DH, B97 family of functionals     
  Stefan Grimme          : VdW corrections, initial TS optimization, DFT functionals, gCP, sTDA/sTD-DF 
  Waldemar Hujo          : DFT-NL                                        
  H. Jonsson             : NEB                                           
  Holger Kruse           : gCP                                           
  Marcel Mueller         : wB97X-3c, vDZP basis set                      
  Hagen Neugebauer       : wr2SCAN, Native XTB                           
  Gianluca Regni         : ADLD/ADEX                                     
  Tobias Risthaus        : pre 6.0 range-separated hybrid DFT and stability analysis
  Lukas Wittmann         : regularized MP2, r2SCAN double-hybrids, wr2SCAN        
                                                                         
We gratefully acknowledge several colleagues who have allowed us to      
interface, adapt or use parts of their codes:                            
  Ed Valeev, F. Pavosevic, A. Kumar             : LibInt (2-el integral package), F12 methods 
  Garnet Chan, S. Sharma, J. Yang, R. Olivares  : DMRG                   
  Ulf Ekstrom                                   : XCFun DFT Library      
  Mihaly Kallay                                 : mrcc  (arbitrary order and MRCC methods)
  Frank Weinhold                                : gennbo (NPA and NBO analysis)           
  Simon Mueller                                 : openCOSMO-RS                            
  Christopher J. Cramer and Donald G. Truhlar   : smd solvation model                     
  S Lehtola, MJT Oliveira, MAL Marques          : LibXC Library                           
  Liviu Ungur et al                             : ANISO software                          


 Your calculation uses the libint2 library for the computation of 2-el integrals
 For citations please refer to: http://libint.valeyev.net

 Your ORCA version has been built with support for libXC version: 7.0.0
 For citations please refer to: https://libxc.gitlab.io

 This ORCA versions uses:
   CBLAS   interface :  Fast vector & matrix operations
   LAPACKE interface :  Fast linear algebra routines
   SCALAPACK package :  Parallel linear algebra routines
   Shared memory     :  Shared parallel matrices
   BLAS/LAPACK       :  OpenBLAS 0.3.29  USE64BITINT DYNAMIC_ARCH NO_AFFINITY Cooperlake SINGLE_THREADED
        Core in use  :  Cooperlake
   Copyright (c) 2011-2014, The OpenBLAS Project


  ***********************************
  * Starting time: Fri Jul 18 12:34:55 2025
  * Host name:     abcsim-001
  * Process ID:    934143
  * Working dir.:  /home/vhpaschoal/orca_test/Uracil/Vacuo/Uracil_0
  ***********************************

Warning: RI is on but no J-basis has been assigned. Assigning Def2/J (nothing to worry about!)
================================================================================

----- Orbital basis set information -----
Your calculation utilizes the basis: def2-SVP
   F. Weigend and R. Ahlrichs, Phys. Chem. Chem. Phys. 7, 3297 (2005).

----- AuxJ basis set information -----
Your calculation utilizes the auxiliary basis: def2/J
   H-Rn: F. Weigend, Phys. Chem. Chem. Phys. 8, 1057 (2006).
   Fr-Lr: K. Eichkorn, F. Weigend, O. Treutler, R. Ahlrichs; Theor. Chem. Acc. 97, 119 (1997).

================================================================================
                                        WARNINGS
                       Please study these warnings very carefully!
================================================================================


WARNING: Geometry Optimization
  ===> : Switching off AutoStart
         For restart on a previous wavefunction, please use MOREAD

================================================================================
                                       INPUT FILE
================================================================================
NAME = Uracil_0.inp
|  1> !B3LYP def2-SVP OPT FREQ pal16
|  2> * xyz 0 1
|  3>    C        1.32473        0.49516       -0.07094
|  4>    C        1.13894       -0.83742        0.03418
|  5>    N       -0.14943       -1.38802        0.10855
|  6>    C       -1.30730       -0.55468        0.07507
|  7>    N       -1.12118        0.84628       -0.03525
|  8>    C        0.18928        1.42125       -0.11192
|  9>    O       -2.42322       -1.05548        0.14114
| 10>    O        0.23983        2.63654       -0.20492
| 11>    H        1.97469       -1.54909        0.06650
| 12>    H       -0.26397       -2.37323        0.18546
| 13>    H       -1.93136        1.43000       -0.05870
| 14>    H        2.32899        0.92869       -0.12920
| 15> **                         ****END OF INPUT****
================================================================================

                       *****************************
                       * Geometry Optimization Run *
                       *****************************

Geometry optimization settings:
Update method            Update   .... BFGS
Choice of coordinates    CoordSys .... (2022) Redundant Internals
Initial Hessian          InHess   .... Almloef's Model
Max. no of cycles        MaxIter  .... 50

Convergence Tolerances:
Energy Change            TolE     ....  5.0000e-06 Eh
Max. Gradient            TolMAXG  ....  3.0000e-04 Eh/bohr
RMS Gradient             TolRMSG  ....  1.0000e-04 Eh/bohr
Max. Displacement        TolMAXD  ....  4.0000e-03 bohr
RMS Displacement         TolRMSD  ....  2.0000e-03 bohr
Strict Convergence                .... False

------------------------------------------------------------------------------
                        ORCA OPTIMIZATION COORDINATE SETUP
------------------------------------------------------------------------------

The optimization will be done in redundant internal coordinates (2022)
Making redundant internal coordinates   ...  (2022 redundants) done
Evaluating the initial hessian          ...  (Almloef) done
Evaluating the coordinates              ...  done
Calculating the B-matrix                .... done
Calculating the G-matrix                .... done
The number of degrees of freedom        ....   54

    -----------------------------------------------------------------
                    Redundant Internal Coordinates


    -----------------------------------------------------------------
         Definition                    Initial Value    Approx d2E/dq
    -----------------------------------------------------------------
      1. B(C   1,C   0)                  1.3496         0.724841   
      2. B(N   2,C   1)                  1.4031         0.533375   
      3. B(C   3,N   2)                  1.4270         0.488534   
      4. B(N   4,C   3)                  1.4176         0.505699   
      5. B(C   5,N   4)                  1.4331         0.477653   
      6. B(C   5,C   0)                  1.4658         0.472939   
      7. B(O   6,C   3)                  1.2249         1.026221   
      8. B(O   7,C   5)                  1.2199         1.045378   
      9. B(H   8,C   1)                  1.0982         0.349441   
     10. B(H   9,N   2)                  0.9948         0.457518   
     11. B(H  10,N   4)                  0.9988         0.450826   
     12. B(H  11,C   0)                  1.0954         0.353039   
     13. A(C   1,C   0,H  11)          121.4094         0.361185   
     14. A(C   1,C   0,C   5)          121.2908         0.425237   
     15. A(C   5,C   0,H  11)          117.2997         0.336112   
     16. A(C   0,C   1,H   8)          122.5076         0.360555   
     17. A(C   0,C   1,N   2)          121.2001         0.431671   
     18. A(N   2,C   1,H   8)          116.2923         0.340258   
     19. A(C   3,N   2,H   9)          119.1265         0.347753   
     20. A(C   1,N   2,C   3)          120.9755         0.399819   
     21. A(C   1,N   2,H   9)          119.8980         0.352948   
     22. A(N   2,C   3,O   6)          119.9461         0.449441   
     23. A(N   2,C   3,N   4)          118.1929         0.396093   
     24. A(N   4,C   3,O   6)          121.8610         0.452269   
     25. A(C   3,N   4,H  10)          118.2217         0.348915   
     26. A(C   3,N   4,C   5)          121.3812         0.394531   
     27. A(C   5,N   4,H  10)          120.3971         0.345580   
     28. A(C   0,C   5,N   4)          116.9595         0.392431   
     29. A(N   4,C   5,O   7)          116.2101         0.449112   
     30. A(C   0,C   5,O   7)          126.8304         0.451286   
     31. D(H   8,C   1,C   0,C   5)    179.9935         0.037230   
     32. D(H   8,C   1,C   0,H  11)      0.0010         0.037230   
     33. D(N   2,C   1,C   0,H  11)    179.9977         0.037230   
     34. D(N   2,C   1,C   0,C   5)     -0.0098         0.037230   
     35. D(H   9,N   2,C   1,C   0)    179.9851         0.022605   
     36. D(C   3,N   2,C   1,C   0)      0.0127         0.022605   
     37. D(C   3,N   2,C   1,H   8)   -179.9903         0.022605   
     38. D(H   9,N   2,C   1,H   8)     -0.0180         0.022605   
     39. D(O   6,C   3,N   2,H   9)      0.0194         0.018843   
     40. D(O   6,C   3,N   2,C   1)    179.9919         0.018843   
     41. D(N   4,C   3,N   2,H   9)   -179.9831         0.018843   
     42. D(N   4,C   3,N   2,C   1)     -0.0106         0.018843   
     43. D(H  10,N   4,C   3,N   2)   -179.9985         0.020233   
     44. D(C   5,N   4,C   3,O   6)   -179.9966         0.020233   
     45. D(C   5,N   4,C   3,N   2)      0.0059         0.020233   
     46. D(H  10,N   4,C   3,O   6)     -0.0010         0.020233   
     47. D(O   7,C   5,N   4,H  10)     -0.0019         0.017995   
     48. D(C   0,C   5,N   4,H  10)   -179.9985         0.017995   
     49. D(C   0,C   5,N   4,C   3)     -0.0030         0.017995   
     50. D(O   7,C   5,C   0,H  11)      0.0015         0.015230   
     51. D(O   7,C   5,C   0,C   1)   -179.9914         0.015230   
     52. D(O   7,C   5,N   4,C   3)    179.9936         0.017995   
     53. D(N   4,C   5,C   0,H  11)    179.9977         0.015230   
     54. D(N   4,C   5,C   0,C   1)      0.0049         0.015230   
    -----------------------------------------------------------------

Number of atoms                         .... 12
Number of degrees of freedom            .... 54


         *************************************************************
         *                GEOMETRY OPTIMIZATION CYCLE   1            *
         *************************************************************
---------------------------------
CARTESIAN COORDINATES (ANGSTROEM)
---------------------------------
  C      1.324730    0.495160   -0.070940
  C      1.138940   -0.837420    0.034180
  N     -0.149430   -1.388020    0.108550
  C     -1.307300   -0.554680    0.075070
  N     -1.121180    0.846280   -0.035250
  C      0.189280    1.421250   -0.111920
  O     -2.423220   -1.055480    0.141140
  O      0.239830    2.636540   -0.204920
  H      1.974690   -1.549090    0.066500
  H     -0.263970   -2.373230    0.185460
  H     -1.931360    1.430000   -0.058700
  H      2.328990    0.928690   -0.129200

----------------------------
CARTESIAN COORDINATES (A.U.)
----------------------------
  NO LB      ZA    FRAG     MASS         X           Y           Z
   0 C     6.0000    0    12.011    2.503377    0.935717   -0.134057
   1 C     6.0000    0    12.011    2.152285   -1.582494    0.064591
   2 N     7.0000    0    14.007   -0.282382   -2.622978    0.205130
   3 C     6.0000    0    12.011   -2.470439   -1.048193    0.141862
   4 N     7.0000    0    14.007   -2.118723    1.599237   -0.066613
   5 C     6.0000    0    12.011    0.357687    2.685773   -0.211498
   6 O     8.0000    0    15.999   -4.579222   -1.994568    0.266716
   7 O     8.0000    0    15.999    0.453213    4.982339   -0.387243
   8 H     1.0000    0     1.008    3.731623   -2.927356    0.125667
   9 H     1.0000    0     1.008   -0.498831   -4.484755    0.350469
  10 H     1.0000    0     1.008   -3.649741    2.702308   -0.110927
  11 H     1.0000    0     1.008    4.401153    1.754970   -0.244153

--------------------------------
INTERNAL COORDINATES (ANGSTROEM)
--------------------------------
 C      0   0   0     0.000000000000     0.00000000     0.00000000
 C      1   0   0     1.349569410923     0.00000000     0.00000000
 N      2   1   0     1.403063973524   121.20006196     0.00000000
 C      3   2   1     1.426968606137   120.97549059     0.00000000
 N      4   3   2     1.417568368157   118.19289712     0.00000000
 C      5   4   3     1.433099508548   121.38121195     0.00000000
 O      4   3   2     1.224925847266   119.94612470   179.99189921
 O      6   5   4     1.219891014230   116.21014351   179.99363208
 H      2   1   3     1.098178871496   122.50760068   180.00327188
 H      3   2   1     0.994823252543   119.89795461   179.98508457
 H      5   4   3     0.998834607580   118.22168911   180.00150113
 H      1   2   3     1.095390631738   121.40942987   179.99770913

---------------------------
INTERNAL COORDINATES (A.U.)
---------------------------
 C      0   0   0     0.000000000000     0.00000000     0.00000000
 C      1   0   0     2.550316585363     0.00000000     0.00000000
 N      2   1   0     2.651406658331   121.20006196     0.00000000
 C      3   2   1     2.696579867302   120.97549059     0.00000000
 N      4   3   2     2.678815991927   118.19289712     0.00000000
 C      5   4   3     2.708165593813   121.38121195     0.00000000
 O      4   3   2     2.314774385694   119.94612470   179.99189921
 O      6   5   4     2.305259930127   116.21014351   179.99363208
 H      2   1   3     2.075257313186   122.50760068   180.00327188
 H      3   2   1     1.879943498963   119.89795461   179.98508457
 H      5   4   3     1.887523861409   118.22168911   180.00150113
 H      1   2   3     2.069988303648   121.40942987   179.99770913

---------------------
BASIS SET INFORMATION
---------------------
There are 4 groups of distinct atoms

 Group   1 Type C   : 7s4p1d contracted to 3s2p1d pattern {511/31/1}
 Group   2 Type N   : 7s4p1d contracted to 3s2p1d pattern {511/31/1}
 Group   3 Type O   : 7s4p1d contracted to 3s2p1d pattern {511/31/1}
 Group   4 Type H   : 4s1p contracted to 2s1p pattern {31/1}

Atom   0C    basis set group =>   1
Atom   1C    basis set group =>   1
Atom   2N    basis set group =>   2
Atom   3C    basis set group =>   1
Atom   4N    basis set group =>   2
Atom   5C    basis set group =>   1
Atom   6O    basis set group =>   3
Atom   7O    basis set group =>   3
Atom   8H    basis set group =>   4
Atom   9H    basis set group =>   4
Atom  10H    basis set group =>   4
Atom  11H    basis set group =>   4
---------------------------------
AUXILIARY/J BASIS SET INFORMATION
---------------------------------
There are 4 groups of distinct atoms

 Group   1 Type C   : 12s5p4d2f1g contracted to 6s4p3d1f1g pattern {711111/2111/211/2/1}
 Group   2 Type N   : 12s5p4d2f1g contracted to 6s4p3d1f1g pattern {711111/2111/211/2/1}
 Group   3 Type O   : 12s5p4d2f1g contracted to 6s4p3d1f1g pattern {711111/2111/211/2/1}
 Group   4 Type H   : 5s2p1d contracted to 3s1p1d pattern {311/2/1}

Atom   0C    basis set group =>   1
Atom   1C    basis set group =>   1
Atom   2N    basis set group =>   2
Atom   3C    basis set group =>   1
Atom   4N    basis set group =>   2
Atom   5C    basis set group =>   1
Atom   6O    basis set group =>   3
Atom   7O    basis set group =>   3
Atom   8H    basis set group =>   4
Atom   9H    basis set group =>   4
Atom  10H    basis set group =>   4
Atom  11H    basis set group =>   4


           ************************************************************
           *        Program running with 16 parallel MPI-processes    *
           *              working on a common directory               *
           ************************************************************
------------------------------------------------------------------------------
                             ORCA STARTUP CALCULATIONS
                           -- RI-GTO INTEGRALS CHOSEN --
------------------------------------------------------------------------------
------------------------------------------------------------------------------
                   ___                                                        
                  /   \      - P O W E R E D   B Y -                         
                 /     \                                                     
                 |  |  |   _    _      __       _____    __    __             
                 |  |  |  | |  | |    /  \     |  _  \  |  |  /  |          
                  \  \/   | |  | |   /    \    | | | |  |  | /  /          
                 / \  \   | |__| |  /  /\  \   | |_| |  |  |/  /          
                |  |  |   |  __  | /  /__\  \  |    /   |      \           
                |  |  |   | |  | | |   __   |  |    \   |  |\   \          
                \     /   | |  | | |  |  |  |  | |\  \  |  | \   \       
                 \___/    |_|  |_| |__|  |__|  |_| \__\ |__|  \__/        
                                                                              
                      - O R C A' S   B I G   F R I E N D -                    
                                      &                                       
                       - I N T E G R A L  F E E D E R -                       
                                                                              
 v1 FN, 2020, v2 2021, v3 2022-2024                                           
------------------------------------------------------------------------------


----------------------
SHARK INTEGRAL PACKAGE
----------------------

Number of atoms                             ...     12
Number of basis functions                   ...    132
Number of shells                            ...     60
Maximum angular momentum                    ...      2
Integral batch strategy                     ... SHARK/LIBINT Hybrid
RI-J (if used) integral strategy            ... SPLIT-RIJ (Revised 2003 algorithm where possible)
Printlevel                                  ...      1
Contraction scheme used                     ... SEGMENTED contraction
Prescreening option                         ... SCHWARTZ
   Thresh                                   ... 2.500e-11
   Tcut                                     ... 2.500e-12
   Tpresel                                  ... 2.500e-12 
Coulomb Range Separation                    ... NOT USED
Exchange Range Separation                   ... NOT USED
Multipole approximations                    ... NOT USED
Finite Nucleus Model                        ... NOT USED
CABS basis                                  ... NOT available
Auxiliary Coulomb fitting basis             ... AVAILABLE
   # of basis functions in Aux-J            ...    436
   # of shells in Aux-J                     ...    140
   Maximum angular momentum in Aux-J        ...      4
Auxiliary J/K fitting basis                 ... NOT available
Auxiliary Correlation fitting basis         ... NOT available
Auxiliary 'external' fitting basis          ... NOT available

Checking pre-screening integrals            ... done (  0.0 sec) Dimension = 60
   => SHARK Basis and OBASIS are compatible. Storing Pre-screening
Shell pair information
Shell pair cut-off parameter TPreSel        ...   2.5e-12
Total number of shell pairs                 ...      1830
Shell pairs after pre-screening             ...      1736
Total number of primitive shell pairs       ...      6902
Primitive shell pairs kept                  ...      4877
          la=0 lb=0:    493 shell pairs
          la=1 lb=0:    612 shell pairs
          la=1 lb=1:    204 shell pairs
          la=2 lb=0:    238 shell pairs
          la=2 lb=1:    154 shell pairs
          la=2 lb=2:     35 shell pairs

Checking whether 4 symmetric matrices of dimension 132 fit in memory
:Max Core in MB      =   4096.00
 MB in use           =      5.59
 MB left             =   4090.41
 MB needed           =      0.27
 Data fit in memory  = YES
Calculating RI/J V-Matrix + Cholesky decomp.... done (  0.0 sec)
Calculating Nuclear repulsion               ... done (  0.0 sec) ENN=    352.536613021700 Eh

Diagonalization of the overlap matrix:
Smallest eigenvalue                        ... 1.299e-03
Time for diagonalization                   ...    0.001 sec
Threshold for overlap eigenvalues          ... 1.000e-07
Number of eigenvalues below threshold      ... 0
Time for construction of square roots      ...    0.000 sec
Total time needed                          ...    0.002 sec

-------------------
DFT GRID GENERATION
-------------------

General Integration Accuracy     IntAcc      ... 4.388
Radial Grid Type                 RadialGrid  ... OptM3 with GC (2021)
Angular Grid (max. ang.)         AngularGrid ... 4 (Lebedev-302)
Angular grid pruning method      GridPruning ... 4 (adaptive)
Weight generation scheme         WeightScheme... mBecke (2022)
Basis function cutoff            BFCut       ... 1.0000e-11
Integration weight cutoff        WCut        ... 1.0000e-14
Partially contracted basis set               ... off
Rotationally invariant grid construction     ... off
Angular grids for H and He will be reduced by one unit

Total number of grid points                  ...    61298
Total number of batches                      ...      965
Average number of points per batch           ...       63
Average number of grid points per atom       ...     5108

--------------------
COSX GRID GENERATION
--------------------

GRIDX 1
-------
General Integration Accuracy     IntAcc      ... 3.816
Radial Grid Type                 RadialGrid  ... OptM3 with GC (2021)
Angular Grid (max. ang.)         AngularGrid ... 1 (Lebedev-50)
Angular grid pruning method      GridPruning ... 4 (adaptive)
Weight generation scheme         WeightScheme... mBecke (2022)
Basis function cutoff            BFCut       ... 1.0000e-11
Integration weight cutoff        WCut        ... 1.0000e-14
Partially contracted basis set               ... on
Rotationally invariant grid construction     ... off
Angular grids for H and He will be reduced by one unit

Total number of grid points                  ...     7800
Total number of batches                      ...       68
Average number of points per batch           ...      114
Average number of grid points per atom       ...      650
UseSFitting                                  ... on

GRIDX 2
-------
General Integration Accuracy     IntAcc      ... 4.020
Radial Grid Type                 RadialGrid  ... OptM3 with GC (2021)
Angular Grid (max. ang.)         AngularGrid ... 2 (Lebedev-110)
Angular grid pruning method      GridPruning ... 4 (adaptive)
Weight generation scheme         WeightScheme... mBecke (2022)
Basis function cutoff            BFCut       ... 1.0000e-11
Integration weight cutoff        WCut        ... 1.0000e-14
Partially contracted basis set               ... on
Rotationally invariant grid construction     ... off
Angular grids for H and He will be reduced by one unit

Total number of grid points                  ...    17638
Total number of batches                      ...      143
Average number of points per batch           ...      123
Average number of grid points per atom       ...     1470
UseSFitting                                  ... on

GRIDX 3
-------
General Integration Accuracy     IntAcc      ... 4.338
Radial Grid Type                 RadialGrid  ... OptM3 with GC (2021)
Angular Grid (max. ang.)         AngularGrid ... 3 (Lebedev-194)
Angular grid pruning method      GridPruning ... 4 (adaptive)
Weight generation scheme         WeightScheme... mBecke (2022)
Basis function cutoff            BFCut       ... 1.0000e-11
Integration weight cutoff        WCut        ... 1.0000e-14
Partially contracted basis set               ... on
Rotationally invariant grid construction     ... off
Angular grids for H and He will be reduced by one unit

Total number of grid points                  ...    38938
Total number of batches                      ...      308
Average number of points per batch           ...      126
Average number of grid points per atom       ...     3245
UseSFitting                                  ... on
Grids setup in   0.4 sec
Initializing property integral containers    ... done (  0.0 sec)

SHARK setup successfully completed in   0.4 seconds

Maximum memory used throughout the entire STARTUP-calculation: 16.2 MB


           ************************************************************
           *        Program running with 16 parallel MPI-processes    *
           *              working on a common directory               *
           ************************************************************
-------------------------------------------------------------------------------
                                 ORCA GUESS
                   Start orbitals & Density for SCF / CASSCF
-------------------------------------------------------------------------------

------------
SCF SETTINGS
------------
Hamiltonian:
 Density Functional     Method          .... DFT(GTOs)
 Exchange Functional    Exchange        .... B88
   X-Alpha parameter    XAlpha          ....  0.666667
   Becke's b parameter  XBeta           ....  0.004200
 Correlation Functional Correlation     .... LYP
 LDA part of GGA corr.  LDAOpt          .... VWN-5
 Gradients option       PostSCFGGA      .... off
 Hybrid DFT is turned on
   Fraction HF Exchange ScalHFX         ....  0.200000
   Scaling of DF-GGA-X  ScalDFX         ....  0.720000
   Scaling of DF-GGA-C  ScalDFC         ....  0.810000
   Scaling of DF-LDA-C  ScalLDAC        ....  1.000000
   Perturbative correction              ....  0.000000
   NL short-range parameter             ....  4.800000
 RI-approximation to the Coulomb term is turned on
   Number of AuxJ basis functions       .... 436
   RIJ-COSX (HFX calculated with COS-X)).... on


General Settings:
 Integral files         IntName         .... Uracil_0
 Hartree-Fock type      HFTyp           .... RHF
 Total Charge           Charge          ....    0
 Multiplicity           Mult            ....    1
 Number of Electrons    NEL             ....   58
 Basis Dimension        Dim             ....  132
 Nuclear Repulsion      ENuc            ....    352.5366130217 Eh

Convergence Acceleration:
 AO-DIIS                CNVDIIS         .... on
   Start iteration      DIISMaxIt       ....    12
   Startup error        DIISStart       ....  0.200000
   # of expansion vecs  DIISMaxEq       ....     5
   Bias factor          DIISBfac        ....   1.050
   Max. coefficient     DIISMaxC        ....  10.000
 MO-DIIS                CNVKDIIS        .... off
 Trust-Rad. Augm. Hess. CNVTRAH         .... auto
   Auto Start mean grad. ratio tolernc. ....  1.125000
   Auto Start start iteration           ....    50
   Auto Start num. interpolation iter.  ....    10
   Max. Number of Micro iterations      ....    24
   Max. Number of Macro iterations      .... Maxiter - #DIIS iter
   Number of Davidson start vectors     ....     2
   Converg. threshold    (grad. norm)   ....   1.000e-05
   Grad. Scal. Fac. for Micro threshold ....   0.100
   Minimum threshold for Micro iter.    ....   1.000e-02
   NR start threshold (gradient norm)   ....   1.000e-04
   Initial trust radius                 ....   0.400
   Minimum AH scaling param. (alpha)    ....   1.000
   Maximum AH scaling param. (alpha)    .... 1000.000
   Quad. conv. algorithm                .... NR
   White noise on init. David. guess    .... on
   Maximum white noise                  ....   0.010
   Pseudo random numbers                .... off
   Inactive MOs                         .... canonical
   Orbital update algorithm             .... Taylor
   Preconditioner                       .... Diag
   Full preconditioner red. dimension   ....   250
 SOSCF                 CNVSOSCF           .... on
   Start iteration     SOSCFMaxIt         ....   150
   Startup grad/error  SOSCFStart         ....  0.003300
   Hessian update      SOSCFHessUp        .... L-BFGS
   Autom. constraints  SOSCFAutoConstrain .... off
 Level Shifting         CNVShift        .... on
   Level shift para.    LevelShift      ....    0.2500
   Turn off err/grad.   ShiftErr        ....    0.0010
 Zerner damping         CNVZerner       .... off
 Static damping         CNVDamp         .... on
   Fraction old density DampFac         ....    0.7000
   Max. Damping (<1)    DampMax         ....    0.9800
   Min. Damping (>=0)   DampMin         ....    0.0000
   Turn off err/grad.   DampErr         ....    0.1000

SCF Procedure:
 Maximum # iterations   MaxIter         ....   125
 SCF integral mode      SCFMode         .... Direct
   Integral package                     .... SHARK and LIBINT hybrid scheme
 Reset frequency        DirectResetFreq ....    20
 Integral Threshold     Thresh          ....  2.500e-11 Eh
 Primitive CutOff       TCut            ....  2.500e-12 Eh

Convergence Tolerance:
 Convergence Check Mode ConvCheckMode   .... Total+1el-Energy
 Convergence forced     ConvForced      .... 0
 Energy Change          TolE            ....  1.000e-08 Eh
 1-El. energy change                    ....  1.000e-05 Eh
 Orbital Gradient       TolG            ....  1.000e-05
 Orbital Rotation angle TolX            ....  1.000e-05
 DIIS Error             TolErr          ....  5.000e-07

------------------------------
INITIAL GUESS: MODEL POTENTIAL
------------------------------
Loading Hartree-Fock densities                     ... done
Calculating cut-offs                               ... done
Initializing the effective Hamiltonian             ... done
Setting up the integral package (SHARK)            ... done
Starting the Coulomb interaction                   ... done (   0.0 sec)
Making the grid                                    ... done (   0.1 sec)
Mapping shells                                     ... done
Starting the XC term evaluation                    ... done (   0.0 sec)
  promolecular density results
     # of electrons  =     57.996551435
     EX              =    -51.281837608
     EC              =     -2.024861019
     EX+EC           =    -53.306698627
Transforming the Hamiltonian                       ... done (   0.0 sec)
Diagonalizing the Hamiltonian                      ... done (   0.0 sec)
Back transforming the eigenvectors                 ... done (   0.0 sec)
Now organizing SCF variables                       ... done
                      ------------------
                      INITIAL GUESS DONE (   0.1 sec)
                      ------------------
             **** ENERGY FILE WAS UPDATED (Uracil_0.en.tmp) ****
Finished Guess after   0.4 sec
Maximum memory used throughout the entire GUESS-calculation: 8.0 MB


           ************************************************************
           *        Program running with 16 parallel MPI-processes    *
           *              working on a common directory               *
           ************************************************************

-------------------------------------------------------------------------------------------
                                      ORCA LEAN-SCF
                              memory conserving SCF solver
-------------------------------------------------------------------------------------------

----------------------------------------D-I-I-S--------------------------------------------
Iteration    Energy (Eh)           Delta-E    RMSDP     MaxDP     DIISErr   Damp  Time(sec)
-------------------------------------------------------------------------------------------
               ***  Starting incremental Fock matrix formation  ***
    1    -414.0003260734666810     0.00e+00  2.64e-02  1.66e-01  2.87e-01  0.700   0.1
    2    -414.1469137870641362    -1.47e-01  1.55e-02  9.44e-02  1.05e-01  0.700   0.1
                               ***Turning on AO-DIIS***
    3    -414.1922952044525346    -4.54e-02  4.71e-03  2.07e-02  4.21e-02  0.700   0.1
    4    -414.2237473163326058    -3.15e-02  7.44e-03  4.40e-02  1.88e-02  0.000   0.1
    5    -414.2957328679480042    -7.20e-02  1.97e-03  9.60e-03  9.76e-03  0.000   0.1
                              *** Initializing SOSCF ***
---------------------------------------S-O-S-C-F--------------------------------------
Iteration    Energy (Eh)           Delta-E    RMSDP     MaxDP     MaxGrad    Time(sec)
--------------------------------------------------------------------------------------
    6    -414.2962340711376328    -5.01e-04  5.69e-04  2.31e-03  2.46e-03     0.1
               *** Restarting incremental Fock matrix formation ***
    7    -414.2963038361524468    -6.98e-05  4.38e-04  1.82e-03  3.36e-04     0.2
    8    -414.2963024827861318     1.35e-06  2.00e-04  1.11e-03  5.52e-04     0.1
    9    -414.2963099734690786    -7.49e-06  1.16e-04  4.87e-04  1.20e-04     0.1
   10    -414.2963098000196851     1.73e-07  5.74e-05  2.63e-04  1.46e-04     0.1
   11    -414.2963104331837485    -6.33e-07  4.86e-05  3.04e-04  4.25e-05     0.1
   12    -414.2963103751470726     5.80e-08  2.77e-05  1.64e-04  7.19e-05     0.1
   13    -414.2963104738523725    -9.87e-08  9.49e-06  5.85e-05  9.88e-06     0.1
   14    -414.2963104675357044     6.32e-09  5.69e-06  3.65e-05  1.69e-05     0.1
                 **** Energy Check signals convergence ****

               *****************************************************
               *                     SUCCESS                       *
               *           SCF CONVERGED AFTER  14 CYCLES          *
               *****************************************************

Recomputing exchange energy using gridx3       ... done (    0.136 sec)
Old exchange energy                            :    -10.343808694 Eh
New exchange energy                            :    -10.343844913 Eh
Exchange energy change after final integration :     -0.000036219 Eh
Total energy after final integration           :   -414.296346698 Eh
             **** ENERGY FILE WAS UPDATED (Uracil_0.en.tmp) ****

----------------
TOTAL SCF ENERGY
----------------

Total Energy       :       -414.29634669783309 Eh          -11273.57673 eV

Components:
Nuclear Repulsion  :        352.53661302170008 Eh            9593.00894 eV
Electronic Energy  :       -766.83292350005263 Eh          -20866.58469 eV
One Electron Energy:      -1262.36466525572746 Eh          -34350.68890 eV
Two Electron Energy:        495.53174175567483 Eh           13484.10421 eV

Virial components:
Potential Energy   :       -824.79878268082359 Eh          -22443.91590 eV
Kinetic Energy     :        410.50243598299051 Eh           11170.33917 eV
Virial Ratio       :          2.00924211498467

DFT components:
N(Alpha)           :       29.000000270414 electrons
N(Beta)            :       29.000000270414 electrons
N(Total)           :       58.000000540829 electrons
E(X)               :      -41.194877811840 Eh       
E(C)               :       -2.385191762229 Eh       
E(XC)              :      -43.580069574069 Eh       

---------------
SCF CONVERGENCE
---------------

  Last Energy change         ...   -6.3167e-09  Tolerance :   1.0000e-08
  Last MAX-Density change    ...    3.6490e-05  Tolerance :   1.0000e-07
  Last RMS-Density change    ...    5.6892e-06  Tolerance :   5.0000e-09
  Last DIIS Error            ...    2.4563e-03  Tolerance :   5.0000e-07
  Last Orbital Gradient      ...    1.6920e-05  Tolerance :   1.0000e-05
  Last Orbital Rotation      ...    1.2625e-05  Tolerance :   1.0000e-05


----------------
ORBITAL ENERGIES
----------------

  NO   OCC          E(Eh)            E(eV) 
   0   2.0000     -19.115149      -520.1496 
   1   2.0000     -19.109231      -519.9886 
   2   2.0000     -14.401023      -391.8718 
   3   2.0000     -14.381129      -391.3304 
   4   2.0000     -10.342209      -281.4258 
   5   2.0000     -10.305707      -280.4325 
   6   2.0000     -10.274984      -279.5965 
   7   2.0000     -10.210503      -277.8419 
   8   2.0000      -1.058112       -28.7927 
   9   2.0000      -1.030133       -28.0313 
  10   2.0000      -0.959924       -26.1209 
  11   2.0000      -0.910952       -24.7883 
  12   2.0000      -0.791224       -21.5303 
  13   2.0000      -0.683976       -18.6119 
  14   2.0000      -0.646845       -17.6015 
  15   2.0000      -0.595896       -16.2151 
  16   2.0000      -0.561819       -15.2879 
  17   2.0000      -0.532249       -14.4832 
  18   2.0000      -0.476521       -12.9668 
  19   2.0000      -0.473964       -12.8972 
  20   2.0000      -0.446129       -12.1398 
  21   2.0000      -0.423279       -11.5180 
  22   2.0000      -0.417326       -11.3560 
  23   2.0000      -0.405083       -11.0229 
  24   2.0000      -0.370080       -10.0704 
  25   2.0000      -0.294108        -8.0031 
  26   2.0000      -0.284867        -7.7516 
  27   2.0000      -0.263488        -7.1699 
  28   2.0000      -0.256469        -6.9789 
  29   0.0000      -0.051176        -1.3926 
  30   0.0000       0.006038         0.1643 
  31   0.0000       0.031098         0.8462 
  32   0.0000       0.076314         2.0766 
  33   0.0000       0.082925         2.2565 
  34   0.0000       0.104651         2.8477 
  35   0.0000       0.117836         3.2065 
  36   0.0000       0.176552         4.8042 
  37   0.0000       0.194013         5.2794 
  38   0.0000       0.211438         5.7535 
  39   0.0000       0.235526         6.4090 
*Only the first 10 virtual orbitals were printed.

                    ********************************
                    * MULLIKEN POPULATION ANALYSIS *
                    ********************************

-----------------------
MULLIKEN ATOMIC CHARGES
-----------------------
   0 C :   -0.110215
   1 C :    0.136028
   2 N :   -0.130916
   3 C :    0.183345
   4 N :   -0.139526
   5 C :    0.167036
   6 O :   -0.226732
   7 O :   -0.214901
   8 H :    0.031575
   9 H :    0.140931
  10 H :    0.141593
  11 H :    0.021781
Sum of atomic charges:   -0.0000000

--------------------------------
MULLIKEN REDUCED ORBITAL CHARGES
--------------------------------
  0 C s       :     3.213416  s :     3.213416
      pz      :     1.098184  p :     2.867869
      px      :     0.912054
      py      :     0.857632
      dz2     :     0.002741  d :     0.028930
      dxz     :     0.001830
      dyz     :     0.005212
      dx2y2   :     0.008789
      dxy     :     0.010358

  1 C s       :     3.071447  s :     3.071447
      pz      :     0.944210  p :     2.741658
      px      :     0.807077
      py      :     0.990370
      dz2     :     0.003873  d :     0.050868
      dxz     :     0.007780
      dyz     :     0.009077
      dx2y2   :     0.013176
      dxy     :     0.016962

  2 N s       :     3.356006  s :     3.356006
      pz      :     1.628380  p :     3.756141
      px      :     1.056922
      py      :     1.070840
      dz2     :     0.002036  d :     0.018769
      dxz     :     0.003388
      dyz     :     0.001039
      dx2y2   :     0.006300
      dxy     :     0.006006

  3 C s       :     3.009091  s :     3.009091
      pz      :     0.868229  p :     2.680806
      px      :     0.878239
      py      :     0.934338
      dz2     :     0.007322  d :     0.126758
      dxz     :     0.023834
      dyz     :     0.015801
      dx2y2   :     0.040553
      dxy     :     0.039247

  4 N s       :     3.380232  s :     3.380232
      pz      :     1.622473  p :     3.742594
      px      :     1.077566
      py      :     1.042555
      dz2     :     0.002024  d :     0.016700
      dxz     :     0.001468
      dyz     :     0.002184
      dx2y2   :     0.005981
      dxy     :     0.005043

  5 C s       :     3.016635  s :     3.016635
      pz      :     0.847506  p :     2.704397
      px      :     0.936146
      py      :     0.920745
      dz2     :     0.006467  d :     0.111932
      dxz     :     0.009240
      dyz     :     0.023299
      dx2y2   :     0.025722
      dxy     :     0.047204

  6 O s       :     3.732645  s :     3.732645
      pz      :     1.444945  p :     4.476272
      px      :     1.371564
      py      :     1.659763
      dz2     :     0.002070  d :     0.017815
      dxz     :     0.004687
      dyz     :     0.000947
      dx2y2   :     0.004906
      dxy     :     0.005205

  7 O s       :     3.723386  s :     3.723386
      pz      :     1.390650  p :     4.473624
      px      :     1.766315
      py      :     1.316658
      dz2     :     0.002069  d :     0.017890
      dxz     :     0.000063
      dyz     :     0.005647
      dx2y2   :     0.006310
      dxy     :     0.003801

  8 H s       :     0.946550  s :     0.946550
      pz      :     0.004203  p :     0.021875
      px      :     0.009767
      py      :     0.007905

  9 H s       :     0.815321  s :     0.815321
      pz      :     0.012178  p :     0.043748
      px      :     0.006397
      py      :     0.025173

 10 H s       :     0.816078  s :     0.816078
      pz      :     0.010849  p :     0.042329
      px      :     0.018825
      py      :     0.012655

 11 H s       :     0.954977  s :     0.954977
      pz      :     0.005074  p :     0.023242
      px      :     0.012942
      py      :     0.005226



                     *******************************
                     * LOEWDIN POPULATION ANALYSIS *
                     *******************************

----------------------
LOEWDIN ATOMIC CHARGES
----------------------
   0 C :   -0.116902
   1 C :    0.070264
   2 N :    0.007628
   3 C :    0.108283
   4 N :   -0.008280
   5 C :    0.081193
   6 O :   -0.221127
   7 O :   -0.196149
   8 H :    0.039930
   9 H :    0.091301
  10 H :    0.094493
  11 H :    0.049365

-------------------------------
LOEWDIN REDUCED ORBITAL CHARGES
-------------------------------
  0 C s       :     2.876158  s :     2.876158
      pz      :     1.075370  p :     3.159188
      px      :     1.037344
      py      :     1.046475
      dz2     :     0.007379  d :     0.081556
      dxz     :     0.003370
      dyz     :     0.010674
      dx2y2   :     0.027833
      dxy     :     0.032300

  1 C s       :     2.861741  s :     2.861741
      pz      :     0.928254  p :     2.946973
      px      :     0.938979
      py      :     1.079740
      dz2     :     0.008407  d :     0.121022
      dxz     :     0.016154
      dyz     :     0.018820
      dx2y2   :     0.034113
      dxy     :     0.043528

  2 N s       :     3.057989  s :     3.057989
      pz      :     1.565477  p :     3.884516
      px      :     1.156193
      py      :     1.162845
      dz2     :     0.004272  d :     0.049867
      dxz     :     0.006591
      dyz     :     0.001943
      dx2y2   :     0.019334
      dxy     :     0.017727

  3 C s       :     2.825694  s :     2.825694
      pz      :     0.868814  p :     2.787042
      px      :     0.974222
      py      :     0.944006
      dz2     :     0.015617  d :     0.278982
      dxz     :     0.045321
      dyz     :     0.031063
      dx2y2   :     0.094548
      dxy     :     0.092433

  4 N s       :     3.083065  s :     3.083065
      pz      :     1.556484  p :     3.878555
      px      :     1.171402
      py      :     1.150668
      dz2     :     0.004974  d :     0.046660
      dxz     :     0.002859
      dyz     :     0.004253
      dx2y2   :     0.017737
      dxy     :     0.016837

  5 C s       :     2.846943  s :     2.846943
      pz      :     0.843393  p :     2.819287
      px      :     0.959159
      py      :     1.016734
      dz2     :     0.014555  d :     0.252577
      dxz     :     0.018739
      dyz     :     0.043713
      dx2y2   :     0.063439
      dxy     :     0.112130

  6 O s       :     3.555695  s :     3.555695
      pz      :     1.445270  p :     4.634928
      px      :     1.488555
      py      :     1.701103
      dz2     :     0.004411  d :     0.030505
      dxz     :     0.005921
      dyz     :     0.001210
      dx2y2   :     0.009015
      dxy     :     0.009947

  7 O s       :     3.549960  s :     3.549960
      pz      :     1.392335  p :     4.615656
      px      :     1.775784
      py      :     1.447537
      dz2     :     0.004337  d :     0.030533
      dxz     :     0.000086
      dyz     :     0.007128
      dx2y2   :     0.013189
      dxy     :     0.005793

  8 H s       :     0.893648  s :     0.893648
      pz      :     0.012539  p :     0.066422
      px      :     0.030584
      py      :     0.023300

  9 H s       :     0.780311  s :     0.780311
      pz      :     0.040173  p :     0.128388
      px      :     0.017264
      py      :     0.070952

 10 H s       :     0.778209  s :     0.778209
      pz      :     0.037512  p :     0.127298
      px      :     0.054540
      py      :     0.035246

 11 H s       :     0.881408  s :     0.881408
      pz      :     0.016718  p :     0.069227
      px      :     0.038122
      py      :     0.014387



                      *****************************
                      * MAYER POPULATION ANALYSIS *
                      *****************************

  NA   - Mulliken gross atomic population
  ZA   - Total nuclear charge
  QA   - Mulliken gross atomic charge
  VA   - Mayer's total valence
  BVA  - Mayer's bonded valence
  FA   - Mayer's free valence

  ATOM       NA         ZA         QA         VA         BVA        FA
  0 C      6.1102     6.0000    -0.1102     3.8223     3.8223    -0.0000
  1 C      5.8640     6.0000     0.1360     3.8933     3.8933     0.0000
  2 N      7.1309     7.0000    -0.1309     3.2343     3.2343    -0.0000
  3 C      5.8167     6.0000     0.1833     4.3731     4.3731     0.0000
  4 N      7.1395     7.0000    -0.1395     3.1136     3.1136     0.0000
  5 C      5.8330     6.0000     0.1670     4.3010     4.3010    -0.0000
  6 O      8.2267     8.0000    -0.2267     2.2873     2.2873     0.0000
  7 O      8.2149     8.0000    -0.2149     2.2936     2.2936    -0.0000
  8 H      0.9684     1.0000     0.0316     0.9840     0.9840    -0.0000
  9 H      0.8591     1.0000     0.1409     1.0047     1.0047    -0.0000
 10 H      0.8584     1.0000     0.1416     1.0213     1.0213    -0.0000
 11 H      0.9782     1.0000     0.0218     1.0047     1.0047    -0.0000

  Mayer bond orders larger than 0.100000
B(  0-C ,  1-C ) :   1.6790 B(  0-C ,  5-C ) :   1.0506 B(  0-C , 11-H ) :   0.9692 
B(  1-C ,  2-N ) :   1.1482 B(  1-C ,  8-H ) :   0.9535 B(  2-N ,  3-C ) :   1.0354 
B(  2-N ,  9-H ) :   0.9219 B(  3-C ,  4-N ) :   1.0951 B(  3-C ,  6-O ) :   2.1245 
B(  4-N ,  5-C ) :   1.0249 B(  4-N , 10-H ) :   0.9053 B(  5-C ,  7-O ) :   2.1170 


-------
TIMINGS
-------

Total SCF time: 0 days 0 hours 0 min 1 sec 

Total time                  ....       1.992 sec
Sum of individual times     ....       1.883 sec  ( 94.6%)

SCF preparation             ....       0.358 sec  ( 18.0%)
Fock matrix formation       ....       1.414 sec  ( 71.0%)
  Startup                   ....       0.002 sec  (  0.1% of F)
  Split-RI-J                ....       0.141 sec  ( 10.0% of F)
  Chain of spheres X        ....       1.049 sec  ( 74.2% of F)
  XC integration            ....       0.255 sec  ( 18.0% of F)
    XC Preparation          ....       0.000 sec  (  0.0% of XC)
    Basis function eval.    ....       0.056 sec  ( 21.8% of XC)
    Density eval.           ....       0.027 sec  ( 10.8% of XC)
    XC-Functional eval.     ....       0.010 sec  (  4.0% of XC)
    XC-Potential eval.      ....       0.026 sec  ( 10.4% of XC)
Diagonalization             ....       0.000 sec  (  0.0%)
Density matrix formation    ....       0.017 sec  (  0.9%)
Total Energy calculation    ....       0.008 sec  (  0.4%)
Population analysis         ....       0.011 sec  (  0.5%)
Orbital Transformation      ....       0.006 sec  (  0.3%)
Orbital Orthonormalization  ....       0.000 sec  (  0.0%)
DIIS solution               ....       0.034 sec  (  1.7%)
SOSCF solution              ....       0.035 sec  (  1.7%)
Finished LeanSCF after   2.0 sec

Maximum memory used throughout the entire LEANSCF-calculation: 10.6 MB


           ************************************************************
           *        Program running with 16 parallel MPI-processes    *
           *              working on a common directory               *
           ************************************************************

------------------------------------------------------------------------------
                         ORCA PROPERTY INTEGRAL CALCULATIONS
------------------------------------------------------------------------------

GBWName                                   ... Uracil_0.gbw
Number of atoms                           ...     12
Number of basis functions                 ...    132
Max core memory                           ...   4096 MB

Dipole integrals                          ... YES
Quadrupole integrals                      ...  NO
Linear momentum integrals                 ...  NO
Angular momentum integrals                ...  NO
Higher moments length integrals           ...  NO
Higher moments velocity integrals         ...  NO
Kinetic energy integrals                  ...  NO
GIAO right hand sides                     ...  NO
GIAO dipole derivative integrals          ...  NO
SOC integrals                             ...  NO
EPR diamagnetic integrals (GIAO)          ...  NO
EPR gauge integrals                       ...  NO
Field gradient integrals                  ...  NO (   0 nuclei)
Spin-dipole/Fermi contact integrals       ...  NO (   0 nuclei)
Contact density integrals                 ...  NO (   0 nuclei)
Nucleus-orbit integrals                   ...  NO (   0 nuclei)
Geometric perturbations                   ...  NO (  12 nuclei)

Choice of electric origin   ... Center of mass
Position of electric origin ... ( -0.5807,  0.3781, -0.0137) 
Choice of magnetic origin   ... GIAO
Position of magnetic origin ... (  0.0000,  0.0000,  0.0000) 

Calculating integrals                     ... Electric Dipole (Length)     done (  0.0 sec)

Property integrals calculated in   0.0 sec

Maximum memory used throughout the entire PROPINT-calculation: 8.2 MB

-------------------------   --------------------
FINAL SINGLE POINT ENERGY      -414.296346697833
-------------------------   --------------------



           ************************************************************
           *        Program running with 16 parallel MPI-processes    *
           *              working on a common directory               *
           ************************************************************
------------------------------------------------------------------------------
                         ORCA SCF GRADIENT CALCULATION
------------------------------------------------------------------------------

Nuc. rep. gradient        (SHARK) ... done (  0.0 sec)
HCore & Overlap gradient  (SHARK) ... done (  0.0 sec)
Split-RIJ-J gradient      (SHARK) ... done (  0.1 sec)
done (  0.5 sec)
XC gradient                       ... done (  0.1 sec)

------------------
CARTESIAN GRADIENT
------------------

   1   C   :   -0.001852347   -0.003753163    0.000344940
   2   C   :    0.018359769    0.011014423   -0.001295304
   3   N   :   -0.018088211   -0.057095846    0.004756454
   4   C   :    0.032255489    0.010289866   -0.001641600
   5   N   :   -0.056432277    0.061419020   -0.003198400
   6   C   :    0.028052976   -0.026029652    0.001267335
   7   O   :   -0.019193814   -0.008132646    0.001121849
   8   O   :   -0.012843145    0.006722189   -0.000178820
   9   H   :    0.003795035   -0.001562425    0.000017319
  10   H   :    0.009512134    0.015665478   -0.001416836
  11   H   :    0.011795633   -0.009170559    0.000394486
  12   H   :    0.004638757    0.000633315   -0.000171422

Difference to translation invariance:
           :   -0.0000000001    0.0000000000   -0.0000000000

Difference to rotation invariance:
           :    0.0000855849   -0.0000274922   -0.0000115855

Norm of the Cartesian gradient     ...    0.1221300169
RMS gradient                       ...    0.0203550028
MAX gradient                       ...    0.0614190201

-------
TIMINGS
-------

Total SCF gradient time     ....        0.687 sec

Densities                   ....       0.000 sec  (  0.0%)
One electron gradient       ....       0.007 sec  (  1.0%)
RI-J Coulomb gradient       ....       0.054 sec  (  7.9%)
COSX gradient               ....       0.537 sec  ( 78.2%)
XC gradient                 ....       0.088 sec  ( 12.8%)

Maximum memory used throughout the entire SCFGRAD-calculation: 13.8 MB
------------------------------------------------------------------------------
                         ORCA GEOMETRY RELAXATION STEP
------------------------------------------------------------------------------

Reading the OPT-File                    .... done
Getting information on internals        .... done
Copying old internal coords+grads       .... done
Making the new internal coordinates     .... (2022 redundants) done
Validating the new internal coordinates .... (2022 redundants) done
Calculating the B-matrix                .... done
Calculating the G,G- and P matrices     .... done
Transforming gradient to internals      .... done
Projecting the internal gradient        .... done
Number of atoms                         ....  12
Number of internal coordinates          ....  54
Current Energy                          ....  -414.296346698 Eh
Current gradient norm                   ....     0.122130017 Eh/bohr
Maximum allowed component of the step   ....  0.300
Current trust radius                    ....  0.300
Evaluating the initial hessian          ....  (Almloef) done
Projecting the Hessian                  .... done
Forming the augmented Hessian           .... done
Diagonalizing the augmented Hessian     .... done
Last element of RFO vector              ....  0.986471125
Lowest eigenvalues of augmented Hessian:
 -0.012513927  0.016371325  0.017942419  0.018935484  0.019581680
Length of the computed step             ....  0.166183380
The final length of the internal step   ....  0.166183380
Converting the step to Cartesian space:
 Initial RMS(Int)=    0.0226146935
Transforming coordinates:
 Iter   0:  RMS(Cart)=    0.0292492522 RMS(Int)=    1.2093831614
done
Storing new coordinates                 .... done

                                .--------------------.
          ----------------------|Geometry convergence|-------------------------
          Item                value                   Tolerance       Converged
          ---------------------------------------------------------------------
          RMS gradient        0.0104411360            0.0001000000      NO
          MAX gradient        0.0276407526            0.0003000000      NO
          RMS step            0.0226146935            0.0020000000      NO
          MAX step            0.0676771574            0.0040000000      NO
          -------------------------------------------------------------------------
          ........................................................
          Max(Bonds)      0.0278      Max(Angles)    3.88
          Max(Dihed)        0.03      Max(Improp)    0.00
          ---------------------------------------------------------------------

The optimization has not yet converged - more geometry cycles are needed


    ---------------------------------------------------------------------------
                         Redundant Internal Coordinates
                            (Angstroem and degrees)

        Definition                    Value    dE/dq     Step     New-Value
    ----------------------------------------------------------------------------
     1. B(C   1,C   0)                1.3496  0.000440  0.0001    1.3497   
     2. B(N   2,C   1)                1.4031  0.020713 -0.0200    1.3830   
     3. B(C   3,N   2)                1.4270  0.025777 -0.0278    1.3992   
     4. B(N   4,C   3)                1.4176  0.025627 -0.0268    1.3908   
     5. B(C   5,N   4)                1.4331  0.010774 -0.0117    1.4214   
     6. B(C   5,C   0)                1.4658  0.007995 -0.0081    1.4577   
     7. B(O   6,C   3)                1.2249  0.020871 -0.0106    1.2143   
     8. B(O   7,C   5)                1.2199  0.006178 -0.0031    1.2168   
     9. B(H   8,C   1)                1.0982  0.003901 -0.0057    1.0925   
    10. B(H   9,N   2)                0.9948 -0.016719  0.0188    1.0136   
    11. B(H  10,N   4)                0.9988 -0.014936  0.0171    1.0159   
    12. B(H  11,C   0)                1.0954  0.004513 -0.0065    1.0889   
    13. A(C   1,C   0,H  11)          121.41 -0.004051    0.53    121.94   
    14. A(C   1,C   0,C   5)          121.29  0.005496   -0.67    120.62   
    15. A(C   5,C   0,H  11)          117.30 -0.001446    0.14    117.44   
    16. A(C   0,C   1,H   8)          122.51 -0.000450    0.08    122.59   
    17. A(C   0,C   1,N   2)          121.20 -0.001745    0.26    121.46   
    18. A(N   2,C   1,H   8)          116.29  0.002195   -0.34    115.95   
    19. A(C   3,N   2,H   9)          119.13  0.013155   -1.93    117.19   
    20. A(C   1,N   2,C   3)          120.98 -0.011947    1.58    122.56   
    21. A(C   1,N   2,H   9)          119.90 -0.001209    0.35    120.25   
    22. A(N   2,C   3,O   6)          119.95 -0.008975    1.33    121.27   
    23. A(N   2,C   3,N   4)          118.19  0.018963   -2.77    115.42   
    24. A(N   4,C   3,O   6)          121.86 -0.009989    1.45    123.31   
    25. A(C   3,N   4,H  10)          118.22  0.013304   -1.85    116.37   
    26. A(C   3,N   4,C   5)          121.38 -0.027641    3.88    125.26   
    27. A(C   5,N   4,H  10)          120.40  0.014337   -2.03    118.37   
    28. A(C   0,C   5,N   4)          116.96  0.016873   -2.28    114.68   
    29. A(N   4,C   5,O   7)          116.21 -0.023553    3.01    119.22   
    30. A(C   0,C   5,O   7)          126.83  0.006680   -0.74    126.10   
    31. D(H   8,C   1,C   0,C   5)    179.99  0.000000   -0.00    179.99   
    32. D(H   8,C   1,C   0,H  11)      0.00  0.000004   -0.01     -0.00   
    33. D(N   2,C   1,C   0,H  11)    180.00  0.000004   -0.01    179.99   
    34. D(N   2,C   1,C   0,C   5)     -0.01  0.000001   -0.00     -0.01   
    35. D(H   9,N   2,C   1,C   0)    179.99  0.000006   -0.01    179.98   
    36. D(C   3,N   2,C   1,C   0)      0.01  0.000001   -0.00      0.01   
    37. D(C   3,N   2,C   1,H   8)   -179.99  0.000001   -0.00   -179.99   
    38. D(H   9,N   2,C   1,H   8)     -0.02  0.000006   -0.01     -0.03   
    39. D(O   6,C   3,N   2,H   9)      0.02  0.000011   -0.02      0.00   
    40. D(O   6,C   3,N   2,C   1)    179.99  0.000012   -0.02    179.97   
    41. D(N   4,C   3,N   2,H   9)   -179.98 -0.000006    0.01   -179.97   
    42. D(N   4,C   3,N   2,C   1)     -0.01 -0.000004    0.01     -0.00   
    43. D(H  10,N   4,C   3,N   2)   -180.00  0.000006   -0.01   -180.01   
    44. D(C   5,N   4,C   3,O   6)   -180.00 -0.000015    0.03   -179.97   
    45. D(C   5,N   4,C   3,N   2)      0.01  0.000002   -0.00      0.00   
    46. D(H  10,N   4,C   3,O   6)     -0.00 -0.000011    0.02      0.02   
    47. D(O   7,C   5,N   4,H  10)     -0.00 -0.000004    0.01      0.01   
    48. D(C   0,C   5,N   4,H  10)   -180.00 -0.000002    0.00   -179.99   
    49. D(C   0,C   5,N   4,C   3)     -0.00  0.000002   -0.00     -0.01   
    50. D(O   7,C   5,C   0,H  11)      0.00 -0.000002    0.00      0.00   
    51. D(O   7,C   5,C   0,C   1)   -179.99  0.000002   -0.00   -179.99   
    52. D(O   7,C   5,N   4,C   3)    179.99 -0.000001    0.00    180.00   
    53. D(N   4,C   5,C   0,H  11)    180.00 -0.000006    0.01    180.01   
    54. D(N   4,C   5,C   0,C   1)      0.00 -0.000002    0.00      0.01   
    ----------------------------------------------------------------------------

Geometry step timings:
Preparation and reading OPT file:      0.000 s ( 2.151 %)
Internal coordinates            :      0.000 s ( 2.016 %)
B/P matrices and projection     :      0.000 s (24.731 %)
Hessian update/contruction      :      0.000 s (14.651 %)
Making the step                 :      0.000 s (27.016 %)
Converting the step to Cartesian:      0.000 s ( 4.167 %)
Storing new data                :      0.000 s ( 2.285 %)
Checking convergence            :      0.000 s ( 2.151 %)
Final printing                  :      0.000 s (20.833 %)
Total time                      :      0.001 s

Time for energy+gradient        :      5.226 s
Time for complete geometry iter :      5.685 s

         *************************************************************
         *                GEOMETRY OPTIMIZATION CYCLE   2            *
         *************************************************************
---------------------------------
CARTESIAN COORDINATES (ANGSTROEM)
---------------------------------
  C      1.320720    0.506879   -0.071759
  C      1.120396   -0.823608    0.033614
  N     -0.153085   -1.357912    0.106438
  C     -1.305185   -0.564579    0.075939
  N     -1.084831    0.804403   -0.032929
  C      0.190685    1.426814   -0.112421
  O     -2.412556   -1.058557    0.140924
  O      0.255676    2.638306   -0.205512
  H      1.942920   -1.541840    0.066762
  H     -0.282634   -2.360179    0.184901
  H     -1.911779    1.394015   -0.056460
  H      2.319674    0.936259   -0.129526

----------------------------
CARTESIAN COORDINATES (A.U.)
----------------------------
  NO LB      ZA    FRAG     MASS         X           Y           Z
   0 C     6.0000    0    12.011    2.495799    0.957863   -0.135606
   1 C     6.0000    0    12.011    2.117242   -1.556394    0.063521
   2 N     7.0000    0    14.007   -0.289288   -2.566082    0.201138
   3 C     6.0000    0    12.011   -2.466443   -1.066900    0.143505
   4 N     7.0000    0    14.007   -2.050033    1.520101   -0.062227
   5 C     6.0000    0    12.011    0.360342    2.696287   -0.212445
   6 O     8.0000    0    15.999   -4.559071   -2.000383    0.266308
   7 O     8.0000    0    15.999    0.483157    4.985676   -0.388362
   8 H     1.0000    0     1.008    3.671587   -2.913656    0.126162
   9 H     1.0000    0     1.008   -0.534101   -4.460092    0.349411
  10 H     1.0000    0     1.008   -3.612739    2.634306   -0.106693
  11 H     1.0000    0     1.008    4.383548    1.769273   -0.244769

--------------------------------
INTERNAL COORDINATES (ANGSTROEM)
--------------------------------
 C      0   0   0     0.000000000000     0.00000000     0.00000000
 C      1   0   0     1.349603570484     0.00000000     0.00000000
 N      2   1   0     1.382945360672   121.44461926     0.00000000
 C      3   2   1     1.399157970046   122.54997558     0.00000000
 N      4   3   2     1.390870181790   115.42544122     0.00000000
 C      5   4   3     1.421497558708   125.27500954     0.00000000
 O      4   3   2     1.214293119368   121.27138613   179.96933449
 O      6   5   4     1.216800520917   119.21906942   179.99650096
 H      2   1   3     1.092475382173   122.59781028   180.00394811
 H      3   2   1     1.013645837897   120.25041840   179.97590762
 H      5   4   3     1.015893237497   116.36603540   179.99260592
 H      1   2   3     1.088858136867   121.94275318   179.99189235

---------------------------
INTERNAL COORDINATES (A.U.)
---------------------------
 C      0   0   0     0.000000000000     0.00000000     0.00000000
 C      1   0   0     2.550381137577     0.00000000     0.00000000
 N      2   1   0     2.613387989848   121.44461926     0.00000000
 C      3   2   1     2.644025381481   122.54997558     0.00000000
 N      4   3   2     2.628363731421   115.42544122     0.00000000
 C      5   4   3     2.686241085996   125.27500954     0.00000000
 O      4   3   2     2.294681441911   121.27138613   179.96933449
 O      6   5   4     2.299419744146   119.21906942   179.99650096
 H      2   1   3     2.064479280358   122.59781028   180.00394811
 H      3   2   1     1.915513030415   120.25041840   179.97590762
 H      5   4   3     1.919760000171   116.36603540   179.99260592
 H      1   2   3     2.057643677370   121.94275318   179.99189235



           ************************************************************
           *        Program running with 16 parallel MPI-processes    *
           *              working on a common directory               *
           ************************************************************
------------------------------------------------------------------------------
                   ___                                                        
                  /   \      - P O W E R E D   B Y -                         
                 /     \                                                     
                 |  |  |   _    _      __       _____    __    __             
                 |  |  |  | |  | |    /  \     |  _  \  |  |  /  |          
                  \  \/   | |  | |   /    \    | | | |  |  | /  /          
                 / \  \   | |__| |  /  /\  \   | |_| |  |  |/  /          
                |  |  |   |  __  | /  /__\  \  |    /   |      \           
                |  |  |   | |  | | |   __   |  |    \   |  |\   \          
                \     /   | |  | | |  |  |  |  | |\  \  |  | \   \       
                 \___/    |_|  |_| |__|  |__|  |_| \__\ |__|  \__/        
                                                                              
                      - O R C A' S   B I G   F R I E N D -                    
                                      &                                       
                       - I N T E G R A L  F E E D E R -                       
                                                                              
 v1 FN, 2020, v2 2021, v3 2022-2024                                           
------------------------------------------------------------------------------


----------------------
SHARK INTEGRAL PACKAGE
----------------------

Number of atoms                             ...     12
Number of basis functions                   ...    132
Number of shells                            ...     60
Maximum angular momentum                    ...      2
Integral batch strategy                     ... SHARK/LIBINT Hybrid
RI-J (if used) integral strategy            ... SPLIT-RIJ (Revised 2003 algorithm where possible)
Printlevel                                  ...      1
Contraction scheme used                     ... SEGMENTED contraction
Prescreening option                         ... SCHWARTZ
   Thresh                                   ... 2.500e-11
   Tcut                                     ... 2.500e-12
   Tpresel                                  ... 2.500e-12 
Coulomb Range Separation                    ... NOT USED
Exchange Range Separation                   ... NOT USED
Multipole approximations                    ... NOT USED
Finite Nucleus Model                        ... NOT USED
CABS basis                                  ... NOT available
Auxiliary Coulomb fitting basis             ... AVAILABLE
   # of basis functions in Aux-J            ...    436
   # of shells in Aux-J                     ...    140
   Maximum angular momentum in Aux-J        ...      4
Auxiliary J/K fitting basis                 ... NOT available
Auxiliary Correlation fitting basis         ... NOT available
Auxiliary 'external' fitting basis          ... NOT available

Checking pre-screening integrals            ... done (  0.0 sec) Dimension = 60
   => SHARK Basis and OBASIS are compatible. Storing Pre-screening
Shell pair information
Shell pair cut-off parameter TPreSel        ...   2.5e-12
Total number of shell pairs                 ...      1830
Shell pairs after pre-screening             ...      1737
Total number of primitive shell pairs       ...      6902
Primitive shell pairs kept                  ...      4890
          la=0 lb=0:    493 shell pairs
          la=1 lb=0:    613 shell pairs
          la=1 lb=1:    204 shell pairs
          la=2 lb=0:    238 shell pairs
          la=2 lb=1:    154 shell pairs
          la=2 lb=2:     35 shell pairs

Checking whether 4 symmetric matrices of dimension 132 fit in memory
:Max Core in MB      =   4096.00
 MB in use           =      5.73
 MB left             =   4090.27
 MB needed           =      0.27
 Data fit in memory  = YES
Calculating RI/J V-Matrix + Cholesky decomp.... done (  0.0 sec)
Calculating Nuclear repulsion               ... done (  0.0 sec) ENN=    355.225024885767 Eh

Diagonalization of the overlap matrix:
Smallest eigenvalue                        ... 1.286e-03
Time for diagonalization                   ...    0.001 sec
Threshold for overlap eigenvalues          ... 1.000e-07
Number of eigenvalues below threshold      ... 0
Time for construction of square roots      ...    0.000 sec
Total time needed                          ...    0.002 sec

-------------------
DFT GRID GENERATION
-------------------

General Integration Accuracy     IntAcc      ... 4.388
Radial Grid Type                 RadialGrid  ... OptM3 with GC (2021)
Angular Grid (max. ang.)         AngularGrid ... 4 (Lebedev-302)
Angular grid pruning method      GridPruning ... 4 (adaptive)
Weight generation scheme         WeightScheme... mBecke (2022)
Basis function cutoff            BFCut       ... 1.0000e-11
Integration weight cutoff        WCut        ... 1.0000e-14
Partially contracted basis set               ... off
Rotationally invariant grid construction     ... off
Angular grids for H and He will be reduced by one unit

Total number of grid points                  ...    61283
Total number of batches                      ...      965
Average number of points per batch           ...       63
Average number of grid points per atom       ...     5107

--------------------
COSX GRID GENERATION
--------------------

GRIDX 1
-------
General Integration Accuracy     IntAcc      ... 3.816
Radial Grid Type                 RadialGrid  ... OptM3 with GC (2021)
[...]
     13       0.047598  -0.128104   0.022990   0.150379   0.032450   0.050384
     14      -0.005381   0.011206  -0.005489  -0.011588  -0.004136  -0.004073
     15      -0.184070  -0.018819  -0.140163   0.151902  -0.121785  -0.022673
     16      -0.002742  -0.002859   0.017396   0.014761  -0.009938   0.065168
     17       0.004889   0.000657   0.002266  -0.004951   0.003861  -0.004347
     18      -0.012311   0.021555  -0.019573  -0.074543  -0.098440  -0.022036
     19      -0.008953   0.015845  -0.055247  -0.016110  -0.032661   0.006458
     20       0.001000  -0.001746   0.004639   0.003127   0.004969   0.000080
     21       0.019184   0.022765   0.015146  -0.033341   0.011401   0.008293
     22      -0.011689   0.019353  -0.048053  -0.082325   0.017064  -0.093675
     23       0.000400  -0.002033   0.003235   0.007051  -0.001578   0.006855
     24       0.294434  -0.355613  -0.171456  -0.340199  -0.027289   0.548133
     25       0.291533  -0.453818  -0.263989  -0.408601   0.226209   0.265121
     26      -0.029726   0.043531   0.024417   0.039705  -0.016473  -0.034135
     27      -0.402634  -0.367670   0.325357  -0.529672  -0.808942   0.291164
     28       0.054841   0.010724  -0.122976   0.074840   0.160908   0.082257
     29       0.006128   0.008573   0.001047   0.007811   0.008513  -0.013728
     30       0.183247   0.376253  -0.339447  -0.370176  -0.042600  -0.006732
     31       0.198743   0.462796  -0.646547  -0.359866  -0.114086   0.028956
     32      -0.019765  -0.044687   0.057590   0.036767   0.009710  -0.002002
     33       0.310545   0.145417   0.174949   0.020861  -0.048466   0.298294
     34      -0.646139  -0.306273  -0.299241  -0.228349   0.288002  -0.086726
     35       0.040838   0.019316   0.018059   0.016677  -0.020519  -0.001114
                 30         31         32         33         34         35    
      0       0.029878  -0.006807   0.012930  -0.079890  -0.000426   0.000365
      1      -0.146430   0.020845   0.000593  -0.037110   0.000216   0.001122
      2       0.010270  -0.001388  -0.000373   0.004826  -0.000006  -0.000094
      3       0.016862   0.013991  -0.063919  -0.009369   0.000043   0.002073
      4       0.052579   0.006841   0.059388   0.015058   0.000219   0.000538
      5      -0.004385  -0.000886  -0.002850  -0.000896  -0.000018  -0.000095
      6      -0.010924  -0.113008   0.001300   0.001120  -0.000607  -0.010271
      7      -0.010990  -0.019401  -0.000402   0.000213   0.000097  -0.073233
      8       0.001114   0.004384  -0.000005  -0.000045   0.000007   0.005751
      9       0.101112   0.629576   0.001244   0.000008   0.000188  -0.000882
     10       0.067591   0.297088  -0.000656   0.000333   0.001118   0.000347
     11      -0.007692  -0.038550   0.000018  -0.000025  -0.000087  -0.000005
     12      -0.029241  -0.078109   0.000028   0.000340   0.058940  -0.000467
     13      -0.102043  -0.071978   0.000137  -0.000010  -0.043755   0.000763
     14       0.008468   0.007445  -0.000011  -0.000008   0.001801  -0.000045
     15      -0.028414   0.008242  -0.000103   0.002055  -0.000672   0.000371
     16       0.684604  -0.134641  -0.000290  -0.002413  -0.000311  -0.000376
     17      -0.050903   0.009938   0.000025   0.000130   0.000041   0.000019
     18      -0.057915  -0.363323  -0.000279   0.000025   0.000207  -0.000121
     19      -0.024538  -0.160749   0.000007  -0.000037   0.000012  -0.000164
     20       0.003323   0.021393   0.000007   0.000002  -0.000006   0.000016
     21      -0.010046   0.006280   0.000021  -0.000194   0.000082  -0.000049
     22      -0.406570   0.089666   0.000180   0.000634  -0.000152   0.000250
     23       0.030903  -0.006912  -0.000015  -0.000043   0.000010  -0.000018
     24      -0.047156   0.005877   0.735945   0.116820   0.000470  -0.006351
     25      -0.009682   0.003272  -0.649950  -0.108494  -0.000415   0.004346
     26       0.001932  -0.000416   0.030291   0.005205   0.000020  -0.000157
     27       0.055217   0.435904  -0.004384  -0.000597   0.000421   0.131802
     28      -0.013525  -0.092399   0.008888   0.003836   0.006425   0.985427
     29      -0.000343  -0.004096  -0.000549  -0.000270  -0.000492  -0.077200
     30       0.317011   0.176877   0.000721  -0.000002  -0.805021   0.004615
     31       0.368579   0.266566  -0.000318  -0.000112   0.588160  -0.003141
     32      -0.035959  -0.024625   0.000005   0.000009  -0.023919   0.000121
     33      -0.111463   0.018450  -0.152666   0.905174  -0.000708  -0.001115
     34       0.223260  -0.044980  -0.061335   0.380032  -0.000086  -0.000405
     35      -0.013955   0.002951   0.008499  -0.051634   0.000025   0.000062


-----------
IR SPECTRUM
-----------

 Mode   freq       eps      Int      T**2         TX        TY        TZ
       cm**-1   L/(mol*cm) km/mol    a.u.
----------------------------------------------------------------------------
  6:    154.60   0.000317    1.60  0.000640  (-0.000664 -0.001922 -0.025209)
  7:    173.08   0.000000    0.00  0.000000  ( 0.000012 -0.000026 -0.000381)
  8:    393.28   0.004062   20.53  0.003223  ( 0.041612 -0.038580  0.001828)
  9:    404.43   0.003857   19.49  0.002976  (-0.001409 -0.004107 -0.054380)
 10:    522.92   0.003550   17.94  0.002119  (-0.021459 -0.040562  0.003605)
 11:    548.35   0.001567    7.92  0.000892  ( 0.029836  0.001070 -0.000760)
 12:    566.12   0.000528    2.67  0.000291  ( 0.014527 -0.008933  0.000433)
 13:    590.52   0.009273   46.86  0.004900  (-0.001745 -0.005143 -0.069790)
 14:    699.25   0.011526   58.25  0.005144  (-0.001760 -0.005363 -0.071498)
 15:    733.41   0.001899    9.60  0.000808  (-0.000700 -0.002150 -0.028338)
 16:    774.95   0.000438    2.21  0.000176  (-0.001349 -0.013190  0.000659)
 17:    784.82   0.009759   49.32  0.003880  (-0.001657 -0.004608 -0.062099)
 18:    824.32   0.013504   68.24  0.005112  ( 0.001779  0.005408  0.071273)
 19:    970.28   0.001237    6.25  0.000398  (-0.017023 -0.010325  0.001222)
 20:    979.66   0.000024    0.12  0.000008  ( 0.000166  0.000332  0.002734)
 21:    990.52   0.001212    6.12  0.000382  ( 0.014106 -0.013507  0.000651)
 22:   1086.25   0.001310    6.62  0.000376  ( 0.007124 -0.018008  0.001174)
 23:   1197.63   0.017476   88.32  0.004554  (-0.034043 -0.058029  0.005238)
 24:   1222.76   0.000251    1.27  0.000064  (-0.001802  0.007771 -0.000554)
 25:   1377.14   0.002790   14.10  0.000632  (-0.022949  0.010267 -0.000195)
 26:   1404.66   0.016153   81.63  0.003589  (-0.056344  0.020344 -0.000084)
 27:   1417.48   0.009583   48.43  0.002110  ( 0.038953 -0.024324  0.000854)
 28:   1507.09   0.024032  121.45  0.004976  (-0.069060 -0.014104  0.002826)
 29:   1689.02   0.015063   76.12  0.002783  (-0.005001 -0.052358  0.004081)
 30:   1824.46   0.123936  626.32  0.021199  ( 0.037904  0.140103 -0.011532)
 31:   1859.26   0.107930  545.43  0.018115  ( 0.126668  0.045020 -0.006609)
 32:   3204.05   0.000529    2.67  0.000052  (-0.007091  0.001113  0.000104)
 33:   3247.92   0.000291    1.47  0.000028  ( 0.003952  0.003496 -0.000378)
 34:   3594.96   0.014234   71.93  0.001236  (-0.027603  0.021744 -0.000936)
 35:   3632.61   0.022427  113.34  0.001927  ( 0.003511  0.043622 -0.003376)

* The epsilon (eps) is given for a Dirac delta lineshape.
** The dipole moment derivative (T) already includes vibrational overlap.

The first frequency considered to be a vibration is 6
The total number of vibrations considered is 30


--------------------------
THERMOCHEMISTRY AT 298.15K
--------------------------

Temperature         ...   298.15 K
Pressure            ...     1.00 atm
Total Mass          ...   112.09 AMU
Quasi RRHO          ...     True
Cut-Off Frequency   ...     1.00 cm^-1

Throughout the following assumptions are being made:
  (1) The electronic state is orbitally nondegenerate
  (2) There are no thermally accessible electronically excited states
  (3) Hindered rotations indicated by low frequency modes are not
      treated as such but are treated as vibrations and this may
      cause some error
  (4) All equations used are the standard statistical mechanics
      equations for an ideal gas
  (5) All vibrations are strictly harmonic

freq.     154.60  E(vib)   ...       0.40 
freq.     173.08  E(vib)   ...       0.38 
freq.     393.28  E(vib)   ...       0.20 
freq.     404.43  E(vib)   ...       0.19 
freq.     522.92  E(vib)   ...       0.13 
freq.     548.35  E(vib)   ...       0.12 
freq.     566.12  E(vib)   ...       0.11 
freq.     590.52  E(vib)   ...       0.10 
freq.     699.25  E(vib)   ...       0.07 
freq.     733.41  E(vib)   ...       0.06 
freq.     774.95  E(vib)   ...       0.05 
freq.     784.82  E(vib)   ...       0.05 
freq.     824.32  E(vib)   ...       0.04 
freq.     970.28  E(vib)   ...       0.03 
freq.     979.66  E(vib)   ...       0.03 
freq.     990.52  E(vib)   ...       0.02 
freq.    1086.25  E(vib)   ...       0.02 
freq.    1197.63  E(vib)   ...       0.01 
freq.    1222.76  E(vib)   ...       0.01 
freq.    1377.14  E(vib)   ...       0.01 
freq.    1404.66  E(vib)   ...       0.00 
freq.    1417.48  E(vib)   ...       0.00 
freq.    1507.09  E(vib)   ...       0.00 
freq.    1689.02  E(vib)   ...       0.00 
freq.    1824.46  E(vib)   ...       0.00 
freq.    1859.26  E(vib)   ...       0.00 
freq.    3204.05  E(vib)   ...       0.00 
freq.    3247.92  E(vib)   ...       0.00 
freq.    3594.96  E(vib)   ...       0.00 
freq.    3632.61  E(vib)   ...       0.00 

------------
INNER ENERGY
------------

The inner energy is: U= E(el) + E(ZPE) + E(vib) + E(rot) + E(trans)
    E(el)   - is the total energy from the electronic structure calculation
              = E(kin-el) + E(nuc-el) + E(el-el) + E(nuc-nuc)
    E(ZPE)  - the the zero temperature vibrational energy from the frequency calculation
    E(vib)  - the the finite temperature correction to E(ZPE) due to population
              of excited vibrational states
    E(rot)  - is the rotational thermal energy
    E(trans)- is the translational thermal energy

Summary of contributions to the inner energy U:
Electronic energy                ...   -414.30604993 Eh
Zero point energy                ...      0.08742648 Eh      54.86 kcal/mol
Thermal vibrational correction   ...      0.00326703 Eh       2.05 kcal/mol
Thermal rotational correction    ...      0.00141627 Eh       0.89 kcal/mol
Thermal translational correction ...      0.00141627 Eh       0.89 kcal/mol
-----------------------------------------------------------------------
Total thermal energy                   -414.21252388 Eh


Summary of corrections to the electronic energy:
(perhaps to be used in another calculation)
Total thermal correction                  0.00609957 Eh       3.83 kcal/mol
Non-thermal (ZPE) correction              0.08742648 Eh      54.86 kcal/mol
-----------------------------------------------------------------------
Total correction                          0.09352605 Eh      58.69 kcal/mol


--------
ENTHALPY
--------

The enthalpy is H = U + kB*T
                kB is Boltzmann's constant
Total thermal energy              ...   -414.21252388 Eh 
Thermal Enthalpy correction       ...      0.00094421 Eh       0.59 kcal/mol
-----------------------------------------------------------------------
Total Enthalpy                    ...   -414.21157967 Eh


Note: Only C1 symmetry has been detected, increase convergence thresholds 
      if your molecule has a higher symmetry. Symmetry factor of 1.0 is   
      used for the rotational entropy correction. 
 

Note: Rotational entropy computed according to Herzberg 
Infrared and Raman Spectra, Chapter V,1, Van Nostrand Reinhold, 1945 
Point Group:  C1, Symmetry Number:   1  
Rotational constants in cm-1:     0.129030     0.066933     0.044071 

Vibrational entropy computed according to the QRRHO of S. Grimme
Chem.Eur.J. 2012 18 9955 using a reference frequency of 100.0 cm-1


-------
ENTROPY
-------

The entropy contributions are T*S = T*(S(el)+S(vib)+S(rot)+S(trans))
     S(el)   - electronic entropy
     S(vib)  - vibrational entropy
     S(rot)  - rotational entropy
     S(trans)- translational entropy
The entropies will be listed as multiplied by the temperature to get
units of energy

Electronic entropy                ...      0.00000000 Eh      0.00 kcal/mol
Vibrational entropy               ...      0.00512597 Eh      3.22 kcal/mol
Rotational entropy                ...      0.01322792 Eh      8.30 kcal/mol
Translational entropy             ...      0.01903286 Eh     11.94 kcal/mol
-----------------------------------------------------------------------
Final entropy term                ...      0.03738675 Eh     23.46 kcal/mol

In case the symmetry of your molecule has not been determined correctly
or in case you have a reason to use a different symmetry number we print 
out the resulting rotational entropy values for sn=1,12:

 non-linear molecules -----------------------------------
|  sn= 1 | S(rot)=       0.01322792 Eh      8.30 kcal/mol|
|  sn= 2 | S(rot)=       0.01257346 Eh      7.89 kcal/mol|
|  sn= 3 | S(rot)=       0.01219063 Eh      7.65 kcal/mol|
|  sn= 4 | S(rot)=       0.01191901 Eh      7.48 kcal/mol|
|  sn= 5 | S(rot)=       0.01170832 Eh      7.35 kcal/mol|
|  sn= 6 | S(rot)=       0.01153617 Eh      7.24 kcal/mol|
|  sn= 7 | S(rot)=       0.01139063 Eh      7.15 kcal/mol|
|  sn= 8 | S(rot)=       0.01126455 Eh      7.07 kcal/mol|
|  sn= 9 | S(rot)=       0.01115334 Eh      7.00 kcal/mol|
|  sn=10 | S(rot)=       0.01105386 Eh      6.94 kcal/mol|
|  sn=11 | S(rot)=       0.01096387 Eh      6.88 kcal/mol|
|  sn=12 | S(rot)=       0.01088172 Eh      6.83 kcal/mol|
 linear molecules ---------------------------------------
|  Dinfh | S(rot)=       0.00827349 Eh      5.19 kcal/mol|
|  Cinfv | S(rot)=       0.00892794 Eh      5.60 kcal/mol|
 --------------------------------------------------------


-------------------
GIBBS FREE ENERGY
-------------------

The Gibbs free energy is G = H - T*S

Total enthalpy                    ...   -414.21157967 Eh 
Total entropy correction          ...     -0.03738675 Eh    -23.46 kcal/mol
-----------------------------------------------------------------------
Final Gibbs free energy         ...   -414.24896641 Eh

For completeness - the Gibbs free energy minus the electronic energy
G-E(el)                           ...      0.05708351 Eh     35.82 kcal/mol


Maximum memory used throughout the entire PROP-calculation: 31.8 MB

--------------------------------
SUGGESTED CITATIONS FOR THIS RUN
--------------------------------

Below you find a list of papers that are relevant to this ORCA run
We neither can nor want to force you to cite these papers, but we appreciate if you do
You receive ORCA, which is the product of decades of hard work by many enthusiastic individuals, for free
The only thing we kindly ask in return is that you cite our papers,
We deeply appreciate it, if you show your appreciation for ORCA by not just citing the generic ORCA reference.

Please note that relegating all ORCA citations to the supporting information does *not* help us.
SI sections are not indexed - citations you put there will not count into any citation statistics
But we need these citations in order to attract the funding resources that allow us to do what we are doing

Therefore, if you are a happy ORCA user, please consider citing a few of the papers listed below in the main body of your paper

In addition to the list printed below, the program has created the file Uracil_0.bibtex that contains the list in bibtex format
You can import this file easily into all common literature databanks and citation aid programs


List of essential papers. We consider these as the minimum necessary citations

  1. Neese, F.
     Software update: the ORCA program system, version 6.0
     WIRES Comput. Molec. Sci. 2025 15(1), e70019
     doi.org/10.1002/wcms.7019

List of papers to cite with high priority. The work reported in these papers was absolutely
necessary for this run to complete.
Our perspective: the developers of density functionals and basis sets usually get cited in chemistry papers
Good! But without the algorithms to do something with them, the functionals or basis sets would not do anything.
Hence, in our opinion, the algorithm design and method developments papers are equally worthy of getting cited

  1. Neese, F.
     An improvement of the resolution of the identity approximation for the formation of the Coulomb matrix
     J. Comp. Chem. 2003 24(14), 1740-1747
     doi.org/10.1002/jcc.10318
  2. Neese, F.; Wennmohs, F.; Hansen, A.; Becker, U.
     Efficient, approximate and parallel Hartree-Fock and hybrid DFT calculations. A 'chain-of-spheres' algorithm for the Hartree-Fock exchange
     Chem. Phys. 2009 356(1-3), 98-109
     doi.org/10.1016/j.chemphys.2008.10.036
  3. Bykov, D.; Petrenko, T.; Izsak, R.; Kossmann, S.; Becker, U.; Valeev, E.; Neese, F.
     Efficient implementation of the analytic second derivatives of Hartree-Fock and hybrid DFT energies: a detailed analysis of different approximations
     Molec. Phys. 2015 113 , 1961-1977
     doi.org/10.1080/00268976.2015.1025114
  4. Helmich-Paris, B.; de Souza, B.; Neese, F.; Izsák, R.
     An improved chain of spheres for exchange algorithm
     J. Chem. Phys. 2021 155(10), 104109
     doi.org/10.1063/5.0058766
  5. Neese, F.
     The SHARK Integral Generation and Digestion System
     J. Comp. Chem. 2022 44(3), 381
     doi.org/10.1002/jcc.26942

List of suggested additional citations. These are papers that are important in the 'surrounding' of 
of this run, or papers that preceded the highly important papers. If you like your results we are grateful for a citation.

  1. Izsak, R.; Neese, F.
     An overlap fitted chain of spheres exchange method
     J. Chem. Phys. 2011 135 , 144105
     doi.org/10.1063/1.3646921
  2. Izsak, R.; Hansen, A.; Neese, F.
     The resolution of identity and chain of spheres approximations for the LPNO-CCSD singles Fock term
     Molec. Phys. 2012 110 , 2413-2417
     doi.org/10.1080/00268976.2012.687466
  3. Neese, F.
     The ORCA program system
     WIRES Comput. Molec. Sci. 2012 2(1), 73-78
     doi.org/10.1002/wcms.81
  4. Izsak, R.; Neese, F.; Klopper, W.
     Robust fitting techniques in the chain of spheres approximation to the Fock exchange: The role of the complementary space
     J. Chem. Phys. 2013 139 , 
     doi.org/10.1063/1.4819264
  5. Neese, F.
     Software update: the ORCA program system, version 4.0
     WIRES Comput. Molec. Sci. 2018 8(1), 1-6
     doi.org/10.1002/wcms.1327
  6. Neese, F.; Wennmohs, F.; Becker, U.; Riplinger, C.
     The ORCA quantum chemistry program package
     J. Chem. Phys. 2020 152(22), 224108
     doi.org/10.1063/5.0004608
  7. Neese, F.
     Software update: The ORCA program system—Version 5.0
     WIRES Comput. Molec. Sci. 2022 12(1), e1606
     doi.org/10.1002/wcms.1606

List of optional additional citations

  1. Neese, F.
     Approximate second-order SCF convergence for spin unrestricted wavefunctions
     Chem. Phys. Lett. 2000 325(1-3), 93-98
     doi.org/10.1016/s0009-2614(00)00662-x

Timings for individual modules:

Sum of individual times          ...       47.784 sec (=   0.796 min)
Startup calculation              ...        6.328 sec (=   0.105 min)  13.2 %
SCF iterations                   ...       16.404 sec (=   0.273 min)  34.3 %
Property integrals               ...        6.273 sec (=   0.105 min)  13.1 %
SCF Response                     ...        3.246 sec (=   0.054 min)   6.8 %
Property calculations            ...        7.277 sec (=   0.121 min)  15.2 %
SCF Gradient evaluation          ...        8.247 sec (=   0.137 min)  17.3 %
Geometry relaxation              ...        0.009 sec (=   0.000 min)   0.0 %
                             ****ORCA TERMINATED NORMALLY****
TOTAL RUN TIME: 0 days 0 hours 0 minutes 51 seconds 478 msec
