12
* (null), Energy   -1000.0000000
C     1.629965    0.315610   -0.065301   -0.008684   -0.026363   -0.348635
C     1.417359   -1.016714    0.040627   -0.003335   -0.010208   -0.133001
N     0.152106   -1.547217    0.113051    0.001286    0.003705    0.050033
C    -1.012934   -0.778188    0.084369    0.000030    0.000180    0.001429
N    -0.757957    0.578797   -0.024165   -0.003703   -0.010407   -0.138601
C     0.490659    1.235340   -0.105671    0.014188    0.042164    0.558022
O    -2.120393   -1.263598    0.148925   -0.000009   -0.000185   -0.002135
O     0.547838    2.444022   -0.198224   -0.004215   -0.012150   -0.162767
H     2.234675   -1.741152    0.074482    0.024222    0.071059    0.941579
H     0.004476   -2.547394    0.191756    0.000001    0.000957    0.013002
H    -1.579890    1.178069   -0.048486    0.010398    0.031208    0.410326
H     2.631499    0.738614   -0.122607    0.039829    0.116902    1.555930
12
* Frequency(18)  824.3163
C     1.628978    0.312614   -0.104921   -0.008684   -0.026363   -0.348635
C     1.416980   -1.017874    0.025512   -0.003335   -0.010208   -0.133001
N     0.152252   -1.546796    0.118737    0.001286    0.003705    0.050033
C    -1.012931   -0.778167    0.084532    0.000030    0.000180    0.001429
N    -0.758378    0.577614   -0.039916   -0.003703   -0.010407   -0.138601
C     0.492271    1.240132   -0.042255    0.014188    0.042164    0.558022
O    -2.120394   -1.263619    0.148682   -0.000009   -0.000185   -0.002135
O     0.547359    2.442641   -0.216721   -0.004215   -0.012150   -0.162767
H     2.237428   -1.733076    0.181487    0.024222    0.071059    0.941579
H     0.004477   -2.547286    0.193233    0.000001    0.000957    0.013002
H    -1.578708    1.181615   -0.001854    0.010398    0.031208    0.410326
H     2.636025    0.751900    0.054216    0.039829    0.116902    1.555930
12
* Frequency(18)  824.3163
C     1.628098    0.309943   -0.140248   -0.008684   -0.026363   -0.348635
C     1.416642   -1.018909    0.012035   -0.003335   -0.010208   -0.133001
N     0.152383   -1.546421    0.123807    0.001286    0.003705    0.050033
C    -1.012928   -0.778149    0.084676    0.000030    0.000180    0.001429
N    -0.758753    0.576560   -0.053961   -0.003703   -0.010407   -0.138601
C     0.493709    1.244404    0.014290    0.014188    0.042164    0.558022
O    -2.120395   -1.263638    0.148466   -0.000009   -0.000185   -0.002135
O     0.546932    2.441410   -0.233214   -0.004215   -0.012150   -0.162767
H     2.239882   -1.725876    0.276897    0.024222    0.071059    0.941579
H     0.004477   -2.547189    0.194551    0.000001    0.000957    0.013002
H    -1.577654    1.184777    0.039724    0.010398    0.031208    0.410326
H     2.640061    0.763745    0.211878    0.039829    0.116902    1.555930
12
* Frequency(18)  824.3163
C     1.627420    0.307885   -0.167454   -0.008684   -0.026363   -0.348635
C     1.416382   -1.019705    0.001657   -0.003335   -0.010208   -0.133001
N     0.152483   -1.546131    0.127712    0.001286    0.003705    0.050033
C    -1.012926   -0.778135    0.084788    0.000030    0.000180    0.001429
N    -0.759042    0.575747   -0.064776   -0.003703   -0.010407   -0.138601
C     0.494816    1.247694    0.057834    0.014188    0.042164    0.558022
O    -2.120395   -1.263652    0.148299   -0.000009   -0.000185   -0.002135
O     0.546603    2.440462   -0.245916   -0.004215   -0.012150   -0.162767
H     2.241772   -1.720331    0.350372    0.024222    0.071059    0.941579
H     0.004477   -2.547114    0.195566    0.000001    0.000957    0.013002
H    -1.576843    1.187213    0.071743    0.010398    0.031208    0.410326
H     2.643169    0.772868    0.333293    0.039829    0.116902    1.555930
12
* Frequency(18)  824.3163
C     1.627019    0.306665   -0.183589   -0.008684   -0.026363   -0.348635
C     1.416227   -1.020178   -0.004499   -0.003335   -0.010208   -0.133001
N     0.152543   -1.545960    0.130027    0.001286    0.003705    0.050033
C    -1.012924   -0.778127    0.084854    0.000030    0.000180    0.001429
N    -0.759213    0.575266   -0.071191   -0.003703   -0.010407   -0.138601
C     0.495472    1.249646    0.083660    0.014188    0.042164    0.558022
O    -2.120396   -1.263661    0.148200   -0.000009   -0.000185   -0.002135
O     0.546408    2.439900   -0.253449   -0.004215   -0.012150   -0.162767
H     2.242893   -1.717042    0.393950    0.024222    0.071059    0.941579
H     0.004477   -2.547070    0.196167    0.000001    0.000957    0.013002
H    -1.576362    1.188657    0.090734    0.010398    0.031208    0.410326
H     2.645013    0.778278    0.405304    0.039829    0.116902    1.555930
12
* Frequency(18)  824.3163
C     1.626936    0.306414   -0.186906   -0.008684   -0.026363   -0.348635
C     1.416196   -1.020275   -0.005764   -0.003335   -0.010208   -0.133001
N     0.152555   -1.545925    0.130503    0.001286    0.003705    0.050033
C    -1.012924   -0.778125    0.084868    0.000030    0.000180    0.001429
N    -0.759248    0.575167   -0.072510   -0.003703   -0.010407   -0.138601
C     0.495607    1.250047    0.088970    0.014188    0.042164    0.558022
O    -2.120396   -1.263662    0.148180   -0.000009   -0.000185   -0.002135
O     0.546368    2.439784   -0.254997   -0.004215   -0.012150   -0.162767
H     2.243124   -1.716366    0.402908    0.024222    0.071059    0.941579
H     0.004477   -2.547060    0.196291    0.000001    0.000957    0.013002
H    -1.576263    1.188954    0.094638    0.010398    0.031208    0.410326
H     2.645392    0.779390    0.420108    0.039829    0.116902    1.555930
12
* Frequency(18)  824.3163
C     1.627182    0.307160   -0.177046   -0.008684   -0.026363   -0.348635
C     1.416290   -1.019986   -0.002002   -0.003335   -0.010208   -0.133001
N     0.152518   -1.546030    0.129088    0.001286    0.003705    0.050033
C    -1.012925   -0.778130    0.084827    0.000030    0.000180    0.001429
N    -0.759144    0.575461   -0.068589   -0.003703   -0.010407   -0.138601
C     0.495206    1.248854    0.073187    0.014188    0.042164    0.558022
O    -2.120396   -1.263657    0.148241   -0.000009   -0.000185   -0.002135
O     0.546487    2.440128   -0.250394   -0.004215   -0.012150   -0.162767
H     2.242439   -1.718376    0.376277    0.024222    0.071059    0.941579
H     0.004477   -2.547088    0.195923    0.000001    0.000957    0.013002
H    -1.576557    1.188071    0.083032    0.010398    0.031208    0.410326
H     2.644265    0.776084    0.376100    0.039829    0.116902    1.555930
12
* Frequency(18)  824.3163
C     1.627729    0.308821   -0.155076   -0.008684   -0.026363   -0.348635
C     1.416500   -1.019343    0.006379   -0.003335   -0.010208   -0.133001
N     0.152437   -1.546263    0.125935    0.001286    0.003705    0.050033
C    -1.012927   -0.778141    0.084737    0.000030    0.000180    0.001429
N    -0.758910    0.576117   -0.059855   -0.003703   -0.010407   -0.138601
C     0.494312    1.246197    0.038022    0.014188    0.042164    0.558022
O    -2.120395   -1.263645    0.148375   -0.000009   -0.000185   -0.002135
O     0.546753    2.440893   -0.240137   -0.004215   -0.012150   -0.162767
H     2.240912   -1.722854    0.316941    0.024222    0.071059    0.941579
H     0.004477   -2.547148    0.195104    0.000001    0.000957    0.013002
H    -1.577212    1.186105    0.057175    0.010398    0.031208    0.410326
H     2.641755    0.768717    0.278050    0.039829    0.116902    1.555930
12
* Frequency(18)  824.3163
C     1.628518    0.311218   -0.123377   -0.008684   -0.026363   -0.348635
C     1.416803   -1.018415    0.018472   -0.003335   -0.010208   -0.133001
N     0.152320   -1.546600    0.121386    0.001286    0.003705    0.050033
C    -1.012929   -0.778158    0.084607    0.000030    0.000180    0.001429
N    -0.758574    0.577063   -0.047253   -0.003703   -0.010407   -0.138601
C     0.493022    1.242364   -0.012715    0.014188    0.042164    0.558022
O    -2.120394   -1.263629    0.148569   -0.000009   -0.000185   -0.002135
O     0.547136    2.441998   -0.225338   -0.004215   -0.012150   -0.162767
H     2.238710   -1.729315    0.231331    0.024222    0.071059    0.941579
H     0.004477   -2.547235    0.193922    0.000001    0.000957    0.013002
H    -1.578158    1.183267    0.019867    0.010398    0.031208    0.410326
H     2.638134    0.758088    0.136582    0.039829    0.116902    1.555930
12
* Frequency(18)  824.3163
C     1.629465    0.314091   -0.085385   -0.008684   -0.026363   -0.348635
C     1.417167   -1.017302    0.032965   -0.003335   -0.010208   -0.133001
N     0.152180   -1.547004    0.115934    0.001286    0.003705    0.050033
C    -1.012932   -0.778177    0.084452    0.000030    0.000180    0.001429
N    -0.758170    0.578197   -0.032149   -0.003703   -0.010407   -0.138601
C     0.491476    1.237769   -0.073524    0.014188    0.042164    0.558022
O    -2.120393   -1.263608    0.148802   -0.000009   -0.000185   -0.002135
O     0.547596    2.443322   -0.207600   -0.004215   -0.012150   -0.162767
H     2.236070   -1.737058    0.128724    0.024222    0.071059    0.941579
H     0.004476   -2.547339    0.192505    0.000001    0.000957    0.013002
H    -1.579291    1.179866   -0.024847    0.010398    0.031208    0.410326
H     2.633794    0.745349   -0.032973    0.039829    0.116902    1.555930
12
* Frequency(18)  824.3163
C     1.630465    0.317129   -0.045217   -0.008684   -0.026363   -0.348635
C     1.417551   -1.016126    0.048289   -0.003335   -0.010208   -0.133001
N     0.152032   -1.547430    0.110169    0.001286    0.003705    0.050033
C    -1.012936   -0.778198    0.084287    0.000030    0.000180    0.001429
N    -0.757743    0.579396   -0.016180   -0.003703   -0.010407   -0.138601
C     0.489841    1.232911   -0.137817    0.014188    0.042164    0.558022
O    -2.120392   -1.263587    0.149048   -0.000009   -0.000185   -0.002135
O     0.548081    2.444722   -0.188847   -0.004215   -0.012150   -0.162767
H     2.233280   -1.745245    0.020239    0.024222    0.071059    0.941579
H     0.004476   -2.547449    0.191007    0.000001    0.000957    0.013002
H    -1.580489    1.176271   -0.072124    0.010398    0.031208    0.410326
H     2.629205    0.731880   -0.212241    0.039829    0.116902    1.555930
12
* Frequency(18)  824.3163
C     1.631412    0.320002   -0.007225   -0.008684   -0.026363   -0.348635
C     1.417915   -1.015014    0.062783   -0.003335   -0.010208   -0.133001
N     0.151892   -1.547834    0.104717    0.001286    0.003705    0.050033
C    -1.012939   -0.778218    0.084131    0.000030    0.000180    0.001429
N    -0.757340    0.580531   -0.001076   -0.003703   -0.010407   -0.138601
C     0.488295    1.228316   -0.198627    0.014188    0.042164    0.558022
O    -2.120391   -1.263567    0.149280   -0.000009   -0.000185   -0.002135
O     0.548541    2.446046   -0.171110   -0.004215   -0.012150   -0.162767
H     2.230640   -1.752989   -0.082368    0.024222    0.071059    0.941579
H     0.004476   -2.547554    0.189590    0.000001    0.000957    0.013002
H    -1.581622    1.172870   -0.116838    0.010398    0.031208    0.410326
H     2.624864    0.719140   -0.381796    0.039829    0.116902    1.555930
12
* Frequency(18)  824.3163
C     1.632201    0.322399    0.024474   -0.008684   -0.026363   -0.348635
C     1.418218   -1.014086    0.074875   -0.003335   -0.010208   -0.133001
N     0.151775   -1.548171    0.100168    0.001286    0.003705    0.050033
C    -1.012942   -0.778234    0.084001    0.000030    0.000180    0.001429
N    -0.757003    0.581477    0.011526   -0.003703   -0.010407   -0.138601
C     0.487005    1.224482   -0.249363    0.014188    0.042164    0.558022
O    -2.120390   -1.263550    0.149475   -0.000009   -0.000185   -0.002135
O     0.548924    2.447151   -0.156311   -0.004215   -0.012150   -0.162767
H     2.228438   -1.759449   -0.167978    0.024222    0.071059    0.941579
H     0.004476   -2.547641    0.188408    0.000001    0.000957    0.013002
H    -1.582567    1.170032   -0.154146    0.010398    0.031208    0.410326
H     2.621243    0.708511   -0.523264    0.039829    0.116902    1.555930
12
* Frequency(18)  824.3163
C     1.632748    0.324060    0.046444   -0.008684   -0.026363   -0.348635
C     1.418428   -1.013442    0.083257   -0.003335   -0.010208   -0.133001
N     0.151694   -1.548404    0.097015    0.001286    0.003705    0.050033
C    -1.012944   -0.778246    0.083911    0.000030    0.000180    0.001429
N    -0.756770    0.582133    0.020260   -0.003703   -0.010407   -0.138601
C     0.486111    1.221825   -0.284528    0.014188    0.042164    0.558022
O    -2.120390   -1.263539    0.149609   -0.000009   -0.000185   -0.002135
O     0.549190    2.447916   -0.146054   -0.004215   -0.012150   -0.162767
H     2.226911   -1.763927   -0.227314    0.024222    0.071059    0.941579
H     0.004476   -2.547701    0.187588    0.000001    0.000957    0.013002
H    -1.583223    1.168066   -0.180003    0.010398    0.031208    0.410326
H     2.618733    0.701145   -0.621315    0.039829    0.116902    1.555930
12
* Frequency(18)  824.3163
C     1.632994    0.324806    0.056305   -0.008684   -0.026363   -0.348635
C     1.418522   -1.013154    0.087018   -0.003335   -0.010208   -0.133001
N     0.151658   -1.548509    0.095600    0.001286    0.003705    0.050033
C    -1.012944   -0.778251    0.083871    0.000030    0.000180    0.001429
N    -0.756665    0.582427    0.024180   -0.003703   -0.010407   -0.138601
C     0.485710    1.220633   -0.300311    0.014188    0.042164    0.558022
O    -2.120389   -1.263533    0.149669   -0.000009   -0.000185   -0.002135
O     0.549309    2.448260   -0.141450   -0.004215   -0.012150   -0.162767
H     2.226226   -1.765937   -0.253945    0.024222    0.071059    0.941579
H     0.004476   -2.547728    0.187221    0.000001    0.000957    0.013002
H    -1.583517    1.167183   -0.191609    0.010398    0.031208    0.410326
H     2.617607    0.697838   -0.665323    0.039829    0.116902    1.555930
12
* Frequency(18)  824.3163
C     1.632911    0.324555    0.052987   -0.008684   -0.026363   -0.348635
C     1.418491   -1.013251    0.085753   -0.003335   -0.010208   -0.133001
N     0.151670   -1.548474    0.096076    0.001286    0.003705    0.050033
C    -1.012944   -0.778249    0.083885    0.000030    0.000180    0.001429
N    -0.756700    0.582328    0.022861   -0.003703   -0.010407   -0.138601
C     0.485845    1.221034   -0.295002    0.014188    0.042164    0.558022
O    -2.120390   -1.263535    0.149649   -0.000009   -0.000185   -0.002135
O     0.549269    2.448144   -0.142998   -0.004215   -0.012150   -0.162767
H     2.226457   -1.765261   -0.244987    0.024222    0.071059    0.941579
H     0.004476   -2.547719    0.187344    0.000001    0.000957    0.013002
H    -1.583418    1.167480   -0.187705    0.010398    0.031208    0.410326
H     2.617986    0.698950   -0.650519    0.039829    0.116902    1.555930
12
* Frequency(18)  824.3163
C     1.632510    0.323335    0.036852   -0.008684   -0.026363   -0.348635
C     1.418336   -1.013723    0.079598   -0.003335   -0.010208   -0.133001
N     0.151729   -1.548302    0.098391    0.001286    0.003705    0.050033
C    -1.012943   -0.778241    0.083951    0.000030    0.000180    0.001429
N    -0.756872    0.581846    0.016447   -0.003703   -0.010407   -0.138601
C     0.486501    1.222985   -0.269176    0.014188    0.042164    0.558022
O    -2.120390   -1.263544    0.149550   -0.000009   -0.000185   -0.002135
O     0.549074    2.447582   -0.150532   -0.004215   -0.012150   -0.162767
H     2.227578   -1.761972   -0.201409    0.024222    0.071059    0.941579
H     0.004476   -2.547675    0.187946    0.000001    0.000957    0.013002
H    -1.582936    1.168924   -0.168714    0.010398    0.031208    0.410326
H     2.619829    0.704361   -0.578507    0.039829    0.116902    1.555930
12
* Frequency(18)  824.3163
C     1.631832    0.321277    0.009647   -0.008684   -0.026363   -0.348635
C     1.418076   -1.014520    0.069219   -0.003335   -0.010208   -0.133001
N     0.151830   -1.548013    0.102295    0.001286    0.003705    0.050033
C    -1.012941   -0.778227    0.084062    0.000030    0.000180    0.001429
N    -0.757161    0.581034    0.005631   -0.003703   -0.010407   -0.138601
C     0.487609    1.226276   -0.225631    0.014188    0.042164    0.558022
O    -2.120391   -1.263558    0.149384   -0.000009   -0.000185   -0.002135
O     0.548745    2.446634   -0.163233   -0.004215   -0.012150   -0.162767
H     2.229468   -1.756427   -0.127934    0.024222    0.071059    0.941579
H     0.004476   -2.547600    0.188961    0.000001    0.000957    0.013002
H    -1.582125    1.171360   -0.136695    0.010398    0.031208    0.410326
H     2.622937    0.713483   -0.457092    0.039829    0.116902    1.555930
12
* Frequency(18)  824.3163
C     1.630952    0.318606   -0.025680   -0.008684   -0.026363   -0.348635
C     1.417738   -1.015554    0.055742   -0.003335   -0.010208   -0.133001
N     0.151960   -1.547638    0.107365    0.001286    0.003705    0.050033
C    -1.012938   -0.778208    0.084207    0.000030    0.000180    0.001429
N    -0.757536    0.579980   -0.008413   -0.003703   -0.010407   -0.138601
C     0.489046    1.230548   -0.169087    0.014188    0.042164    0.558022
O    -2.120392   -1.263577    0.149167   -0.000009   -0.000185   -0.002135
O     0.548317    2.445403   -0.179726   -0.004215   -0.012150   -0.162767
H     2.231922   -1.749227   -0.032524    0.024222    0.071059    0.941579
H     0.004476   -2.547503    0.190278    0.000001    0.000957    0.013002
H    -1.581071    1.174522   -0.095117    0.010398    0.031208    0.410326
H     2.626973    0.725329   -0.299431    0.039829    0.116902    1.555930
12
* Frequency(18)  824.3163
C     1.629965    0.315610   -0.065301   -0.008684   -0.026363   -0.348635
C     1.417359   -1.016714    0.040627   -0.003335   -0.010208   -0.133001
N     0.152106   -1.547217    0.113051    0.001286    0.003705    0.050033
C    -1.012934   -0.778188    0.084369    0.000030    0.000180    0.001429
N    -0.757957    0.578797   -0.024165   -0.003703   -0.010407   -0.138601
C     0.490659    1.235340   -0.105671    0.014188    0.042164    0.558022
O    -2.120393   -1.263598    0.148925   -0.000009   -0.000185   -0.002135
O     0.547838    2.444022   -0.198224   -0.004215   -0.012150   -0.162767
H     2.234675   -1.741152    0.074482    0.024222    0.071059    0.941579
H     0.004476   -2.547394    0.191756    0.000001    0.000957    0.013002
H    -1.579890    1.178069   -0.048486    0.010398    0.031208    0.410326
H     2.631499    0.738614   -0.122607    0.039829    0.116902    1.555930
