3
* (null), Energy   -1000.0000000
O    -3.934634   -0.062359    0.019860    0.099249    0.094955   -0.030241
H    -2.980422    0.055819   -0.017777   -1.398544   -0.173131    0.055139
H    -4.055094   -0.972011    0.309567   -0.176735   -1.333996    0.424853
3
* Frequency(8) 3945.7957
O    -3.923355   -0.051567    0.016423    0.099249    0.094955   -0.030241
H    -3.139359    0.036144   -0.011511   -1.398544   -0.173131    0.055139
H    -4.075179   -1.123612    0.357850   -0.176735   -1.333996    0.424853
3
* Frequency(8) 3945.7957
O    -3.913298   -0.041946    0.013359    0.099249    0.094955   -0.030241
H    -3.281073    0.018600   -0.005924   -1.398544   -0.173131    0.055139
H    -4.093088   -1.258786    0.400900   -0.176735   -1.333996    0.424853
3
* Frequency(8) 3945.7957
O    -3.905553   -0.034536    0.010999    0.099249    0.094955   -0.030241
H    -3.390207    0.005090   -0.001621   -1.398544   -0.173131    0.055139
H    -4.106879   -1.362882    0.434053   -0.176735   -1.333996    0.424853
3
* Frequency(8) 3945.7957
O    -3.900960   -0.030141    0.009599    0.099249    0.094955   -0.030241
H    -3.454934   -0.002922    0.000931   -1.398544   -0.173131    0.055139
H    -4.115058   -1.424622    0.453716   -0.176735   -1.333996    0.424853
3
* Frequency(8) 3945.7957
O    -3.900015   -0.029238    0.009312    0.099249    0.094955   -0.030241
H    -3.468241   -0.004570    0.001455   -1.398544   -0.173131    0.055139
H    -4.116740   -1.437314    0.457758   -0.176735   -1.333996    0.424853
3
* Frequency(8) 3945.7957
O    -3.902822   -0.031924    0.010167    0.099249    0.094955   -0.030241
H    -3.428684    0.000327   -0.000104   -1.398544   -0.173131    0.055139
H    -4.111741   -1.399584    0.445741   -0.176735   -1.333996    0.424853
3
* Frequency(8) 3945.7957
O    -3.909077   -0.037907    0.012073    0.099249    0.094955   -0.030241
H    -3.340552    0.011237   -0.003579   -1.398544   -0.173131    0.055139
H    -4.100604   -1.315519    0.418968   -0.176735   -1.333996    0.424853
3
* Frequency(8) 3945.7957
O    -3.918101   -0.046541    0.014822    0.099249    0.094955   -0.030241
H    -3.213394    0.026979   -0.008592   -1.398544   -0.173131    0.055139
H    -4.084535   -1.194230    0.380340   -0.176735   -1.333996    0.424853
3
* Frequency(8) 3945.7957
O    -3.928916   -0.056888    0.018118    0.099249    0.094955   -0.030241
H    -3.060990    0.045845   -0.014601   -1.398544   -0.173131    0.055139
H    -4.065276   -1.048860    0.334042   -0.176735   -1.333996    0.424853
3
* Frequency(8) 3945.7957
O    -3.940351   -0.067829    0.021602    0.099249    0.094955   -0.030241
H    -2.899855    0.065793   -0.020954   -1.398544   -0.173131    0.055139
H    -4.044913   -0.895162    0.285092   -0.176735   -1.333996    0.424853
3
* Frequency(8) 3945.7957
O    -3.951167   -0.078176    0.024898    0.099249    0.094955   -0.030241
H    -2.747451    0.084660   -0.026963   -1.398544   -0.173131    0.055139
H    -4.025653   -0.749792    0.238795   -0.176735   -1.333996    0.424853
3
* Frequency(8) 3945.7957
O    -3.960191   -0.086810    0.027647    0.099249    0.094955   -0.030241
H    -2.620292    0.100401   -0.031976   -1.398544   -0.173131    0.055139
H    -4.009584   -0.628502    0.200166   -0.176735   -1.333996    0.424853
3
* Frequency(8) 3945.7957
O    -3.966445   -0.092794    0.029553    0.099249    0.094955   -0.030241
H    -2.532160    0.111311   -0.035451   -1.398544   -0.173131    0.055139
H    -3.998447   -0.544437    0.173393   -0.176735   -1.333996    0.424853
3
* Frequency(8) 3945.7957
O    -3.969252   -0.095479    0.030408    0.099249    0.094955   -0.030241
H    -2.492604    0.116208   -0.037010   -1.398544   -0.173131    0.055139
H    -3.993448   -0.506707    0.161377   -0.176735   -1.333996    0.424853
3
* Frequency(8) 3945.7957
O    -3.968308   -0.094576    0.030121    0.099249    0.094955   -0.030241
H    -2.505910    0.114561   -0.036485   -1.398544   -0.173131    0.055139
H    -3.995130   -0.519399    0.165419   -0.176735   -1.333996    0.424853
3
* Frequency(8) 3945.7957
O    -3.963714   -0.090181    0.028721    0.099249    0.094955   -0.030241
H    -2.570637    0.106548   -0.033934   -1.398544   -0.173131    0.055139
H    -4.003309   -0.581139    0.185082   -0.176735   -1.333996    0.424853
3
* Frequency(8) 3945.7957
O    -3.955970   -0.082771    0.026361    0.099249    0.094955   -0.030241
H    -2.679771    0.093038   -0.029631   -1.398544   -0.173131    0.055139
H    -4.017101   -0.685236    0.218235   -0.176735   -1.333996    0.424853
3
* Frequency(8) 3945.7957
O    -3.945913   -0.073150    0.023297    0.099249    0.094955   -0.030241
H    -2.821485    0.075495   -0.024044   -1.398544   -0.173131    0.055139
H    -4.035009   -0.820409    0.261285   -0.176735   -1.333996    0.424853
3
* Frequency(8) 3945.7957
O    -3.934634   -0.062359    0.019860    0.099249    0.094955   -0.030241
H    -2.980422    0.055819   -0.017777   -1.398544   -0.173131    0.055139
H    -4.055094   -0.972011    0.309567   -0.176735   -1.333996    0.424853
