10
* (null), Energy   -1000.0000000
C    -1.287465   -0.687675    0.042671   -0.001493    0.010508    0.076499
C     0.000586    0.100291   -0.014923    0.000789    0.006738    0.045213
H    -2.142632   -0.006880   -0.051035   -0.016142    0.091606    0.796698
H    -1.358065   -1.249292    0.987824    0.307623   -0.677030   -0.315596
H    -1.316048   -1.430091   -0.771204   -0.302480    0.608153   -0.465008
C     1.278866   -0.686888    0.157259   -0.001974    0.011551    0.076079
H     1.302492   -1.160237    1.152237   -0.314902   -0.717286   -0.268906
H     2.142472   -0.019053    0.048594   -0.014295    0.143447    0.792073
H     1.339202   -1.500367   -0.583141    0.313770    0.552681   -0.501165
O     0.008068    1.294714   -0.188240    0.003676   -0.021717   -0.150889
10
* Frequency(7)  133.9853
C    -1.287635   -0.686481    0.051364   -0.001493    0.010508    0.076499
C     0.000676    0.101057   -0.009785    0.000789    0.006738    0.045213
H    -2.144466    0.003531    0.039505   -0.016142    0.091606    0.796698
H    -1.323105   -1.326233    0.951958    0.307623   -0.677030   -0.315596
H    -1.350423   -1.360978   -0.824050   -0.302480    0.608153   -0.465008
C     1.278641   -0.685575    0.165905   -0.001974    0.011551    0.076079
H     1.266705   -1.241753    1.121677   -0.314902   -0.717286   -0.268906
H     2.140847   -0.002751    0.138609   -0.014295    0.143447    0.792073
H     1.374860   -1.437557   -0.640096    0.313770    0.552681   -0.501165
O     0.008486    1.292246   -0.205388    0.003676   -0.021717   -0.150889
10
* Frequency(7)  133.9853
C    -1.287786   -0.685416    0.059116   -0.001493    0.010508    0.076499
C     0.000756    0.101739   -0.005203    0.000789    0.006738    0.045213
H    -2.146102    0.012813    0.120234   -0.016142    0.091606    0.796698
H    -1.291934   -1.394836    0.919979    0.307623   -0.677030   -0.315596
H    -1.381074   -1.299354   -0.871169   -0.302480    0.608153   -0.465008
C     1.278441   -0.684405    0.173614   -0.001974    0.011551    0.076079
H     1.234796   -1.314435    1.094429   -0.314902   -0.717286   -0.268906
H     2.139399    0.011785    0.218869   -0.014295    0.143447    0.792073
H     1.406654   -1.381555   -0.690879    0.313770    0.552681   -0.501165
O     0.008859    1.290046   -0.220678    0.003676   -0.021717   -0.150889
10
* Frequency(7)  133.9853
C    -1.287903   -0.684596    0.065086   -0.001493    0.010508    0.076499
C     0.000817    0.102265   -0.001675    0.000789    0.006738    0.045213
H    -2.147361    0.019962    0.182404   -0.016142    0.091606    0.796698
H    -1.267929   -1.447667    0.895352    0.307623   -0.677030   -0.315596
H    -1.404677   -1.251897   -0.907455   -0.302480    0.608153   -0.465008
C     1.278287   -0.683504    0.179551   -0.001974    0.011551    0.076079
H     1.210223   -1.370408    1.073446   -0.314902   -0.717286   -0.268906
H     2.138283    0.022978    0.280678   -0.014295    0.143447    0.792073
H     1.431139   -1.338427   -0.729986    0.313770    0.552681   -0.501165
O     0.009145    1.288351   -0.232452    0.003676   -0.021717   -0.150889
10
* Frequency(7)  133.9853
C    -1.287972   -0.684110    0.068626   -0.001493    0.010508    0.076499
C     0.000854    0.102577    0.000417    0.000789    0.006738    0.045213
H    -2.148109    0.024201    0.219276   -0.016142    0.091606    0.796698
H    -1.253692   -1.479001    0.880746    0.307623   -0.677030   -0.315596
H    -1.418677   -1.223751   -0.928977   -0.302480    0.608153   -0.465008
C     1.278196   -0.682969    0.183072   -0.001974    0.011551    0.076079
H     1.195649   -1.403605    1.061000   -0.314902   -0.717286   -0.268906
H     2.137622    0.029617    0.317336   -0.014295    0.143447    0.792073
H     1.445661   -1.312848   -0.753181    0.313770    0.552681   -0.501165
O     0.009316    1.287346   -0.239435    0.003676   -0.021717   -0.150889
10
* Frequency(7)  133.9853
C    -1.287986   -0.684010    0.069354   -0.001493    0.010508    0.076499
C     0.000861    0.102641    0.000847    0.000789    0.006738    0.045213
H    -2.148262    0.025073    0.226856   -0.016142    0.091606    0.796698
H    -1.250765   -1.485443    0.877743    0.307623   -0.677030   -0.315596
H    -1.421554   -1.217965   -0.933401   -0.302480    0.608153   -0.465008
C     1.278177   -0.682859    0.183796   -0.001974    0.011551    0.076079
H     1.192653   -1.410430    1.058442   -0.314902   -0.717286   -0.268906
H     2.137486    0.030982    0.324872   -0.014295    0.143447    0.792073
H     1.448646   -1.307589   -0.757950    0.313770    0.552681   -0.501165
O     0.009351    1.287139   -0.240871    0.003676   -0.021717   -0.150889
10
* Frequency(7)  133.9853
C    -1.287944   -0.684307    0.067190   -0.001493    0.010508    0.076499
C     0.000839    0.102450   -0.000431    0.000789    0.006738    0.045213
H    -2.147806    0.022482    0.204323   -0.016142    0.091606    0.796698
H    -1.259466   -1.466294    0.886669    0.307623   -0.677030   -0.315596
H    -1.412999   -1.235166   -0.920249   -0.302480    0.608153   -0.465008
C     1.278233   -0.683186    0.181644   -0.001974    0.011551    0.076079
H     1.201559   -1.390142    1.066047   -0.314902   -0.717286   -0.268906
H     2.137890    0.026925    0.302469   -0.014295    0.143447    0.792073
H     1.439771   -1.323221   -0.743775    0.313770    0.552681   -0.501165
O     0.009247    1.287754   -0.236603    0.003676   -0.021717   -0.150889
10
* Frequency(7)  133.9853
C    -1.287850   -0.684970    0.062369   -0.001493    0.010508    0.076499
C     0.000789    0.102026   -0.003281    0.000789    0.006738    0.045213
H    -2.146788    0.016709    0.154117   -0.016142    0.091606    0.796698
H    -1.278851   -1.423629    0.906557    0.307623   -0.677030   -0.315596
H    -1.393938   -1.273490   -0.890945   -0.302480    0.608153   -0.465008
C     1.278357   -0.683914    0.176850   -0.001974    0.011551    0.076079
H     1.221403   -1.344941    1.082993   -0.314902   -0.717286   -0.268906
H     2.138791    0.017885    0.252555   -0.014295    0.143447    0.792073
H     1.419998   -1.358050   -0.712193    0.313770    0.552681   -0.501165
O     0.009015    1.289122   -0.227095    0.003676   -0.021717   -0.150889
10
* Frequency(7)  133.9853
C    -1.287714   -0.685925    0.055414   -0.001493    0.010508    0.076499
C     0.000717    0.101413   -0.007391    0.000789    0.006738    0.045213
H    -2.145321    0.008380    0.081680   -0.016142    0.091606    0.796698
H    -1.306821   -1.362072    0.935252    0.307623   -0.677030   -0.315596
H    -1.366436   -1.328784   -0.848666   -0.302480    0.608153   -0.465008
C     1.278537   -0.684964    0.169932   -0.001974    0.011551    0.076079
H     1.250035   -1.279724    1.107442   -0.314902   -0.717286   -0.268906
H     2.140090    0.004843    0.180538   -0.014295    0.143447    0.792073
H     1.391470   -1.408300   -0.666626    0.313770    0.552681   -0.501165
O     0.008681    1.291097   -0.213376    0.003676   -0.021717   -0.150889
10
* Frequency(7)  133.9853
C    -1.287551   -0.687070    0.047078   -0.001493    0.010508    0.076499
C     0.000631    0.100679   -0.012318    0.000789    0.006738    0.045213
H    -2.143562   -0.001602   -0.005139   -0.016142    0.091606    0.796698
H    -1.340343   -1.288294    0.969643    0.307623   -0.677030   -0.315596
H    -1.333473   -1.395057   -0.797992   -0.302480    0.608153   -0.465008
C     1.278752   -0.686223    0.161642   -0.001974    0.011551    0.076079
H     1.284351   -1.201559    1.136746   -0.314902   -0.717286   -0.268906
H     2.141648   -0.010789    0.094223   -0.014295    0.143447    0.792073
H     1.357277   -1.468528   -0.612012    0.313770    0.552681   -0.501165
O     0.008280    1.293463   -0.196933    0.003676   -0.021717   -0.150889
10
* Frequency(7)  133.9853
C    -1.287379   -0.688281    0.038264   -0.001493    0.010508    0.076499
C     0.000541    0.099903   -0.017528    0.000789    0.006738    0.045213
H    -2.141702   -0.012157   -0.096932   -0.016142    0.091606    0.796698
H    -1.375787   -1.210289    1.006005    0.307623   -0.677030   -0.315596
H    -1.298623   -1.465126   -0.744416   -0.302480    0.608153   -0.465008
C     1.278980   -0.687554    0.152876   -0.001974    0.011551    0.076079
H     1.320633   -1.118916    1.167728   -0.314902   -0.717286   -0.268906
H     2.143295   -0.027317    0.002964   -0.014295    0.143447    0.792073
H     1.321126   -1.532206   -0.554270    0.313770    0.552681   -0.501165
O     0.007857    1.295966   -0.179548    0.003676   -0.021717   -0.150889
10
* Frequency(7)  133.9853
C    -1.287216   -0.689426    0.029927   -0.001493    0.010508    0.076499
C     0.000455    0.099168   -0.022454    0.000789    0.006738    0.045213
H    -2.139943   -0.022139   -0.183751   -0.016142    0.091606    0.796698
H    -1.409309   -1.136511    1.040397    0.307623   -0.677030   -0.315596
H    -1.265660   -1.531398   -0.693742   -0.302480    0.608153   -0.465008
C     1.279195   -0.688812    0.144586   -0.001974    0.011551    0.076079
H     1.354949   -1.040751    1.197032   -0.314902   -0.717286   -0.268906
H     2.144853   -0.042949   -0.083351   -0.014295    0.143447    0.792073
H     1.286933   -1.592433   -0.499656    0.313770    0.552681   -0.501165
O     0.007456    1.298332   -0.163105    0.003676   -0.021717   -0.150889
10
* Frequency(7)  133.9853
C    -1.287080   -0.690381    0.022972   -0.001493    0.010508    0.076499
C     0.000383    0.098556   -0.026565    0.000789    0.006738    0.045213
H    -2.138475   -0.030468   -0.256188   -0.016142    0.091606    0.796698
H    -1.437279   -1.074954    1.069091    0.307623   -0.677030   -0.315596
H    -1.238158   -1.586693   -0.651463   -0.302480    0.608153   -0.465008
C     1.279374   -0.689863    0.137668   -0.001974    0.011551    0.076079
H     1.383580   -0.975534    1.221481   -0.314902   -0.717286   -0.268906
H     2.146152   -0.055991   -0.155368   -0.014295    0.143447    0.792073
H     1.258405   -1.642684   -0.454089    0.313770    0.552681   -0.501165
O     0.007122    1.300307   -0.149386    0.003676   -0.021717   -0.150889
10
* Frequency(7)  133.9853
C    -1.286986   -0.691043    0.018151   -0.001493    0.010508    0.076499
C     0.000333    0.098131   -0.029414    0.000789    0.006738    0.045213
H    -2.137458   -0.036241   -0.306394   -0.016142    0.091606    0.796698
H    -1.456665   -1.032289    1.088979    0.307623   -0.677030   -0.315596
H    -1.219097   -1.625017   -0.622160   -0.302480    0.608153   -0.465008
C     1.279499   -0.690590    0.132874   -0.001974    0.011551    0.076079
H     1.403424   -0.930332    1.238427   -0.314902   -0.717286   -0.268906
H     2.147053   -0.065031   -0.205282   -0.014295    0.143447    0.792073
H     1.238632   -1.677512   -0.422507    0.313770    0.552681   -0.501165
O     0.006890    1.301675   -0.139877    0.003676   -0.021717   -0.150889
10
* Frequency(7)  133.9853
C    -1.286944   -0.691341    0.015987   -0.001493    0.010508    0.076499
C     0.000311    0.097941   -0.030693    0.000789    0.006738    0.045213
H    -2.137001   -0.038832   -0.328927   -0.016142    0.091606    0.796698
H    -1.465365   -1.013140    1.097905    0.307623   -0.677030   -0.315596
H    -1.210541   -1.642218   -0.609007   -0.302480    0.608153   -0.465008
C     1.279554   -0.690917    0.130722   -0.001974    0.011551    0.076079
H     1.412331   -0.910045    1.246033   -0.314902   -0.717286   -0.268906
H     2.147458   -0.069088   -0.227685   -0.014295    0.143447    0.792073
H     1.229757   -1.693144   -0.408332    0.313770    0.552681   -0.501165
O     0.006786    1.302290   -0.135610    0.003676   -0.021717   -0.150889
10
* Frequency(7)  133.9853
C    -1.286958   -0.691241    0.016715   -0.001493    0.010508    0.076499
C     0.000318    0.098005   -0.030263    0.000789    0.006738    0.045213
H    -2.137155   -0.037960   -0.321347   -0.016142    0.091606    0.796698
H    -1.462438   -1.019582    1.094903    0.307623   -0.677030   -0.315596
H    -1.213419   -1.636432   -0.613432   -0.302480    0.608153   -0.465008
C     1.279536   -0.690807    0.131446   -0.001974    0.011551    0.076079
H     1.409335   -0.916869    1.243474   -0.314902   -0.717286   -0.268906
H     2.147322   -0.067723   -0.220149   -0.014295    0.143447    0.792073
H     1.232743   -1.687886   -0.413101    0.313770    0.552681   -0.501165
O     0.006821    1.302083   -0.137045    0.003676   -0.021717   -0.150889
10
* Frequency(7)  133.9853
C    -1.287027   -0.690754    0.020256   -0.001493    0.010508    0.076499
C     0.000355    0.098317   -0.028171    0.000789    0.006738    0.045213
H    -2.137902   -0.033721   -0.284475   -0.016142    0.091606    0.796698
H    -1.448201   -1.050916    1.080296    0.307623   -0.677030   -0.315596
H    -1.227419   -1.608285   -0.634953   -0.302480    0.608153   -0.465008
C     1.279444   -0.690273    0.134967   -0.001974    0.011551    0.076079
H     1.394761   -0.950067    1.231029   -0.314902   -0.717286   -0.268906
H     2.146660   -0.061084   -0.183490   -0.014295    0.143447    0.792073
H     1.247265   -1.662307   -0.436296    0.313770    0.552681   -0.501165
O     0.006991    1.301078   -0.144029    0.003676   -0.021717   -0.150889
10
* Frequency(7)  133.9853
C    -1.287144   -0.689934    0.026225   -0.001493    0.010508    0.076499
C     0.000416    0.098842   -0.024642    0.000789    0.006738    0.045213
H    -2.139162   -0.026572   -0.222305   -0.016142    0.091606    0.796698
H    -1.424196   -1.103747    1.055669    0.307623   -0.677030   -0.315596
H    -1.251022   -1.560829   -0.671239   -0.302480    0.608153   -0.465008
C     1.279290   -0.689371    0.140904   -0.001974    0.011551    0.076079
H     1.370188   -1.006039    1.210045   -0.314902   -0.717286   -0.268906
H     2.145545   -0.049890   -0.121682   -0.014295    0.143447    0.792073
H     1.271749   -1.619179   -0.475403    0.313770    0.552681   -0.501165
O     0.007278    1.299383   -0.155803    0.003676   -0.021717   -0.150889
10
* Frequency(7)  133.9853
C    -1.287295   -0.688870    0.033977   -0.001493    0.010508    0.076499
C     0.000496    0.099525   -0.020061    0.000789    0.006738    0.045213
H    -2.140797   -0.017290   -0.141576   -0.016142    0.091606    0.796698
H    -1.393025   -1.172351    1.023690    0.307623   -0.677030   -0.315596
H    -1.281673   -1.499205   -0.718358   -0.302480    0.608153   -0.465008
C     1.279090   -0.688201    0.148613   -0.001974    0.011551    0.076079
H     1.338279   -1.078721    1.182797   -0.314902   -0.717286   -0.268906
H     2.144096   -0.035355   -0.041421   -0.014295    0.143447    0.792073
H     1.303543   -1.563176   -0.526186    0.313770    0.552681   -0.501165
O     0.007651    1.297182   -0.171093    0.003676   -0.021717   -0.150889
10
* Frequency(7)  133.9853
C    -1.287465   -0.687675    0.042671   -0.001493    0.010508    0.076499
C     0.000586    0.100291   -0.014923    0.000789    0.006738    0.045213
H    -2.142632   -0.006880   -0.051035   -0.016142    0.091606    0.796698
H    -1.358065   -1.249292    0.987824    0.307623   -0.677030   -0.315596
H    -1.316048   -1.430091   -0.771204   -0.302480    0.608153   -0.465008
C     1.278866   -0.686888    0.157259   -0.001974    0.011551    0.076079
H     1.302492   -1.160237    1.152237   -0.314902   -0.717286   -0.268906
H     2.142472   -0.019053    0.048594   -0.014295    0.143447    0.792073
H     1.339202   -1.500367   -0.583141    0.313770    0.552681   -0.501165
O     0.008068    1.294714   -0.188240    0.003676   -0.021717   -0.150889
