10
* (null), Energy   -1000.0000000
C    -1.287465   -0.687675    0.042671    0.011007   -0.033279   -0.259950
C     0.000586    0.100291   -0.014923   -0.018962    0.069230    0.476970
H    -2.142632   -0.006880   -0.051035    0.004154    0.074626    0.579138
H    -1.358065   -1.249292    0.987824    0.610880    0.571143    0.164096
H    -1.316048   -1.430091   -0.771204   -0.655985   -0.512799    0.227283
C     1.278866   -0.686888    0.157259    0.012502   -0.041460   -0.258544
H     1.302492   -1.160237    1.152237   -0.655854    0.563279    0.066865
H     2.142472   -0.019053    0.048594    0.014138    0.090954    0.576003
H     1.339202   -1.500367   -0.583141    0.596243   -0.506084    0.324594
O     0.008068    1.294714   -0.188240    0.002032   -0.013576   -0.090927
10
* Frequency(15) 1104.6041
C    -1.286214   -0.691457    0.013129    0.011007   -0.033279   -0.259950
C    -0.001569    0.108158    0.039282   -0.018962    0.069230    0.476970
H    -2.142160    0.001601    0.014780    0.004154    0.074626    0.579138
H    -1.288642   -1.184384    1.006473    0.610880    0.571143    0.164096
H    -1.390597   -1.488368   -0.745375   -0.655985   -0.512799    0.227283
C     1.280287   -0.691600    0.127877    0.012502   -0.041460   -0.258544
H     1.227957   -1.096223    1.159836   -0.655854    0.563279    0.066865
H     2.144078   -0.008716    0.114053    0.014138    0.090954    0.576003
H     1.406962   -1.557881   -0.546253    0.596243   -0.506084    0.324594
O     0.008299    1.293172   -0.198574    0.002032   -0.013576   -0.090927
10
* Frequency(15) 1104.6041
C    -1.285099   -0.694830   -0.013212    0.011007   -0.033279   -0.259950
C    -0.003490    0.115174    0.087613   -0.018962    0.069230    0.476970
H    -2.141739    0.009163    0.073464    0.004154    0.074626    0.579138
H    -1.226741   -1.126511    1.023101    0.610880    0.571143    0.164096
H    -1.457068   -1.540330   -0.722344   -0.655985   -0.512799    0.227283
C     1.281553   -0.695801    0.101679    0.012502   -0.041460   -0.258544
H     1.161500   -1.039147    1.166611   -0.655854    0.563279    0.066865
H     2.145511    0.000500    0.172419    0.014138    0.090954    0.576003
H     1.467379   -1.609162   -0.513362    0.596243   -0.506084    0.324594
O     0.008505    1.291796   -0.207787    0.002032   -0.013576   -0.090927
10
* Frequency(15) 1104.6041
C    -1.284240   -0.697426   -0.033497    0.011007   -0.033279   -0.259950
C    -0.004970    0.120576    0.124833   -0.018962    0.069230    0.476970
H    -2.141415    0.014986    0.118657    0.004154    0.074626    0.579138
H    -1.179072   -1.081942    1.035906    0.610880    0.571143    0.164096
H    -1.508257   -1.580346   -0.704608   -0.655985   -0.512799    0.227283
C     1.282529   -0.699036    0.081503    0.012502   -0.041460   -0.258544
H     1.110321   -0.995192    1.171829   -0.655854    0.563279    0.066865
H     2.146614    0.007597    0.217367    0.014138    0.090954    0.576003
H     1.513906   -1.648654   -0.488032    0.596243   -0.506084    0.324594
O     0.008664    1.290737   -0.214883    0.002032   -0.013576   -0.090927
10
* Frequency(15) 1104.6041
C    -1.283730   -0.698967   -0.045528    0.011007   -0.033279   -0.259950
C    -0.005848    0.123780    0.146908   -0.018962    0.069230    0.476970
H    -2.141222    0.018440    0.145460    0.004154    0.074626    0.579138
H    -1.150799   -1.055509    1.043500    0.610880    0.571143    0.164096
H    -1.538617   -1.604079   -0.694089   -0.655985   -0.512799    0.227283
C     1.283108   -0.700955    0.069537    0.012502   -0.041460   -0.258544
H     1.079967   -0.969122    1.174924   -0.655854    0.563279    0.066865
H     2.147268    0.011807    0.244026    0.014138    0.090954    0.576003
H     1.541501   -1.672076   -0.473010    0.596243   -0.506084    0.324594
O     0.008758    1.290108   -0.219091    0.002032   -0.013576   -0.090927
10
* Frequency(15) 1104.6041
C    -1.283626   -0.699283   -0.048001    0.011007   -0.033279   -0.259950
C    -0.006028    0.124439    0.151446   -0.018962    0.069230    0.476970
H    -2.141183    0.019150    0.150970    0.004154    0.074626    0.579138
H    -1.144987   -1.050075    1.045062    0.610880    0.571143    0.164096
H    -1.544859   -1.608958   -0.691927   -0.655985   -0.512799    0.227283
C     1.283226   -0.701350    0.067078    0.012502   -0.041460   -0.258544
H     1.073727   -0.963763    1.175560   -0.655854    0.563279    0.066865
H     2.147403    0.012672    0.249506    0.014138    0.090954    0.576003
H     1.547174   -1.676891   -0.469921    0.596243   -0.506084    0.324594
O     0.008777    1.289979   -0.219956    0.002032   -0.013576   -0.090927
10
* Frequency(15) 1104.6041
C    -1.283937   -0.698342   -0.040649    0.011007   -0.033279   -0.259950
C    -0.005492    0.122481    0.137956   -0.018962    0.069230    0.476970
H    -2.141300    0.017040    0.134590    0.004154    0.074626    0.579138
H    -1.162265   -1.066229    1.040420    0.610880    0.571143    0.164096
H    -1.526305   -1.594454   -0.698355   -0.655985   -0.512799    0.227283
C     1.282873   -0.700177    0.074390    0.012502   -0.041460   -0.258544
H     1.092277   -0.979695    1.173669   -0.655854    0.563279    0.066865
H     2.147003    0.010100    0.233214    0.014138    0.090954    0.576003
H     1.530310   -1.662577   -0.479102    0.596243   -0.506084    0.324594
O     0.008720    1.290363   -0.217384    0.002032   -0.013576   -0.090927
10
* Frequency(15) 1104.6041
C    -1.284631   -0.696245   -0.024267    0.011007   -0.033279   -0.259950
C    -0.004297    0.118118    0.107899   -0.018962    0.069230    0.476970
H    -2.141562    0.012337    0.098094    0.004154    0.074626    0.579138
H    -1.200761   -1.102221    1.030079    0.610880    0.571143    0.164096
H    -1.484966   -1.562139   -0.712678   -0.655985   -0.512799    0.227283
C     1.282085   -0.697564    0.090683    0.012502   -0.041460   -0.258544
H     1.133607   -1.015191    1.169455   -0.655854    0.563279    0.066865
H     2.146112    0.004368    0.196916    0.014138    0.090954    0.576003
H     1.492736   -1.630685   -0.499557    0.596243   -0.506084    0.324594
O     0.008592    1.291219   -0.211654    0.002032   -0.013576   -0.090927
10
* Frequency(15) 1104.6041
C    -1.285631   -0.693219   -0.000632    0.011007   -0.033279   -0.259950
C    -0.002573    0.111823    0.064532   -0.018962    0.069230    0.476970
H    -2.141940    0.005552    0.045438    0.004154    0.074626    0.579138
H    -1.256304   -1.154150    1.015159    0.610880    0.571143    0.164096
H    -1.425323   -1.515514   -0.733343   -0.655985   -0.512799    0.227283
C     1.280948   -0.693795    0.114190    0.012502   -0.041460   -0.258544
H     1.193239   -1.066405    1.163376   -0.655854    0.563279    0.066865
H     2.144827   -0.003902    0.144545    0.014138    0.090954    0.576003
H     1.438525   -1.584671   -0.529070    0.596243   -0.506084    0.324594
O     0.008407    1.292453   -0.203387    0.002032   -0.013576   -0.090927
10
* Frequency(15) 1104.6041
C    -1.286831   -0.689592    0.027695    0.011007   -0.033279   -0.259950
C    -0.000506    0.104279    0.012554   -0.018962    0.069230    0.476970
H    -2.142392   -0.002581   -0.017672    0.004154    0.074626    0.579138
H    -1.322873   -1.216389    0.997277    0.610880    0.571143    0.164096
H    -1.353838   -1.459633   -0.758111   -0.655985   -0.512799    0.227283
C     1.279586   -0.689277    0.142365    0.012502   -0.041460   -0.258544
H     1.264709   -1.127788    1.156089   -0.655854    0.563279    0.066865
H     2.143286   -0.013813    0.081776    0.014138    0.090954    0.576003
H     1.373550   -1.529521   -0.564442    0.596243   -0.506084    0.324594
O     0.008185    1.293932   -0.193478    0.002032   -0.013576   -0.090927
10
* Frequency(15) 1104.6041
C    -1.288099   -0.685758    0.057646    0.011007   -0.033279   -0.259950
C     0.001678    0.096303   -0.042400   -0.018962    0.069230    0.476970
H    -2.142871   -0.011179   -0.084399    0.004154    0.074626    0.579138
H    -1.393257   -1.282194    0.978371    0.610880    0.571143    0.164096
H    -1.278258   -1.400550   -0.784298   -0.655985   -0.512799    0.227283
C     1.278146   -0.684500    0.172153    0.012502   -0.041460   -0.258544
H     1.340274   -1.192687    1.148385   -0.655854    0.563279    0.066865
H     2.141657   -0.024293    0.015411    0.014138    0.090954    0.576003
H     1.304853   -1.471212   -0.601840    0.596243   -0.506084    0.324594
O     0.007951    1.295497   -0.183002    0.002032   -0.013576   -0.090927
10
* Frequency(15) 1104.6041
C    -1.289299   -0.682132    0.085973    0.011007   -0.033279   -0.259950
C     0.003745    0.088758   -0.094377   -0.018962    0.069230    0.476970
H    -2.143324   -0.019311   -0.147509    0.004154    0.074626    0.579138
H    -1.459826   -1.344433    0.960489    0.610880    0.571143    0.164096
H    -1.206773   -1.344668   -0.809065   -0.655985   -0.512799    0.227283
C     1.276783   -0.679982    0.200328    0.012502   -0.041460   -0.258544
H     1.411745   -1.254069    1.141099   -0.655854    0.563279    0.066865
H     2.140116   -0.034204   -0.047358    0.014138    0.090954    0.576003
H     1.239878   -1.416062   -0.637212    0.596243   -0.506084    0.324594
O     0.007730    1.296976   -0.173094    0.002032   -0.013576   -0.090927
10
* Frequency(15) 1104.6041
C    -1.290299   -0.679106    0.109609    0.011007   -0.033279   -0.259950
C     0.005469    0.082464   -0.137744   -0.018962    0.069230    0.476970
H    -2.143701   -0.026096   -0.200165    0.004154    0.074626    0.579138
H    -1.515369   -1.396363    0.945569    0.610880    0.571143    0.164096
H    -1.147130   -1.298044   -0.829730   -0.655985   -0.512799    0.227283
C     1.275647   -0.676212    0.223835    0.012502   -0.041460   -0.258544
H     1.471376   -1.305284    1.135019   -0.655854    0.563279    0.066865
H     2.138831   -0.042474   -0.099729    0.014138    0.090954    0.576003
H     1.185667   -1.370048   -0.666725    0.596243   -0.506084    0.324594
O     0.007545    1.298210   -0.164826    0.002032   -0.013576   -0.090927
10
* Frequency(15) 1104.6041
C    -1.290993   -0.677009    0.125990    0.011007   -0.033279   -0.259950
C     0.006664    0.078101   -0.167802   -0.018962    0.069230    0.476970
H    -2.143963   -0.030799   -0.236661    0.004154    0.074626    0.579138
H    -1.553865   -1.432355    0.935228    0.610880    0.571143    0.164096
H    -1.105791   -1.265729   -0.844053   -0.655985   -0.512799    0.227283
C     1.274859   -0.673599    0.240128    0.012502   -0.041460   -0.258544
H     1.512707   -1.340780    1.130806   -0.655854    0.563279    0.066865
H     2.137940   -0.048206   -0.136027    0.014138    0.090954    0.576003
H     1.148093   -1.338156   -0.687180    0.596243   -0.506084    0.324594
O     0.007417    1.299066   -0.159096    0.002032   -0.013576   -0.090927
10
* Frequency(15) 1104.6041
C    -1.291304   -0.676067    0.133342    0.011007   -0.033279   -0.259950
C     0.007200    0.076143   -0.181292   -0.018962    0.069230    0.476970
H    -2.144081   -0.032909   -0.253041    0.004154    0.074626    0.579138
H    -1.571143   -1.448509    0.930587    0.610880    0.571143    0.164096
H    -1.087237   -1.251225   -0.850482   -0.655985   -0.512799    0.227283
C     1.274505   -0.672427    0.247441    0.012502   -0.041460   -0.258544
H     1.531257   -1.356712    1.128914   -0.655854    0.563279    0.066865
H     2.137540   -0.050778   -0.152319    0.014138    0.090954    0.576003
H     1.131229   -1.323842   -0.696361    0.596243   -0.506084    0.324594
O     0.007360    1.299450   -0.156525    0.002032   -0.013576   -0.090927
10
* Frequency(15) 1104.6041
C    -1.291199   -0.676384    0.130869    0.011007   -0.033279   -0.259950
C     0.007020    0.076802   -0.176754   -0.018962    0.069230    0.476970
H    -2.144041   -0.032199   -0.247531    0.004154    0.074626    0.579138
H    -1.565331   -1.443075    0.932148    0.610880    0.571143    0.164096
H    -1.093479   -1.256104   -0.848319   -0.655985   -0.512799    0.227283
C     1.274624   -0.672821    0.244981    0.012502   -0.041460   -0.258544
H     1.525017   -1.351352    1.129551   -0.655854    0.563279    0.066865
H     2.137675   -0.049913   -0.146839    0.014138    0.090954    0.576003
H     1.136902   -1.328657   -0.693272    0.596243   -0.506084    0.324594
O     0.007379    1.299321   -0.157390    0.002032   -0.013576   -0.090927
10
* Frequency(15) 1104.6041
C    -1.290690   -0.677924    0.118838    0.011007   -0.033279   -0.259950
C     0.006142    0.080006   -0.154679   -0.018962    0.069230    0.476970
H    -2.143849   -0.028746   -0.220728    0.004154    0.074626    0.579138
H    -1.537058   -1.416641    0.939743    0.610880    0.571143    0.164096
H    -1.123839   -1.279837   -0.837800   -0.655985   -0.512799    0.227283
C     1.275203   -0.674740    0.233015    0.012502   -0.041460   -0.258544
H     1.494662   -1.325283    1.132645   -0.655854    0.563279    0.066865
H     2.138329   -0.045703   -0.120180    0.014138    0.090954    0.576003
H     1.164497   -1.352080   -0.678250    0.596243   -0.506084    0.324594
O     0.007473    1.298692   -0.161598    0.002032   -0.013576   -0.090927
10
* Frequency(15) 1104.6041
C    -1.289831   -0.680521    0.098553    0.011007   -0.033279   -0.259950
C     0.004662    0.085408   -0.117459   -0.018962    0.069230    0.476970
H    -2.143525   -0.022922   -0.175535    0.004154    0.074626    0.579138
H    -1.489389   -1.372073    0.952548    0.610880    0.571143    0.164096
H    -1.175028   -1.319853   -0.820064   -0.655985   -0.512799    0.227283
C     1.276178   -0.677975    0.212839    0.012502   -0.041460   -0.258544
H     1.443484   -1.281328    1.137863   -0.655854    0.563279    0.066865
H     2.139432   -0.038606   -0.075232    0.014138    0.090954    0.576003
H     1.211025   -1.391572   -0.652920    0.596243   -0.506084    0.324594
O     0.007632    1.297633   -0.168693    0.002032   -0.013576   -0.090927
10
* Frequency(15) 1104.6041
C    -1.288716   -0.683893    0.072213    0.011007   -0.033279   -0.259950
C     0.002741    0.092423   -0.069128   -0.018962    0.069230    0.476970
H    -2.143104   -0.015360   -0.116851    0.004154    0.074626    0.579138
H    -1.427488   -1.314199    0.969175    0.610880    0.571143    0.164096
H    -1.241499   -1.371814   -0.797034   -0.655985   -0.512799    0.227283
C     1.277445   -0.682176    0.186641    0.012502   -0.041460   -0.258544
H     1.377026   -1.224251    1.144638   -0.655854    0.563279    0.066865
H     2.140865   -0.029389   -0.016866    0.014138    0.090954    0.576003
H     1.271442   -1.442853   -0.620029    0.596243   -0.506084    0.324594
O     0.007837    1.296257   -0.177907    0.002032   -0.013576   -0.090927
10
* Frequency(15) 1104.6041
C    -1.287465   -0.687675    0.042671    0.011007   -0.033279   -0.259950
C     0.000586    0.100291   -0.014923   -0.018962    0.069230    0.476970
H    -2.142632   -0.006880   -0.051035    0.004154    0.074626    0.579138
H    -1.358065   -1.249292    0.987824    0.610880    0.571143    0.164096
H    -1.316048   -1.430091   -0.771204   -0.655985   -0.512799    0.227283
C     1.278866   -0.686888    0.157259    0.012502   -0.041460   -0.258544
H     1.302492   -1.160237    1.152237   -0.655854    0.563279    0.066865
H     2.142472   -0.019053    0.048594    0.014138    0.090954    0.576003
H     1.339202   -1.500367   -0.583141    0.596243   -0.506084    0.324594
O     0.008068    1.294714   -0.188240    0.002032   -0.013576   -0.090927
