
                                 *****************
                                 * O   R   C   A *
                                 *****************

                                            #,                                       
                                            ###                                      
                                            ####                                     
                                            #####                                    
                                            ######                                   
                                           ########,                                 
                                     ,,################,,,,,                         
                               ,,#################################,,                 
                          ,,##########################################,,             
                       ,#########################################, ''#####,          
                    ,#############################################,,   '####,        
                  ,##################################################,,,,####,       
                ,###########''''           ''''###############################       
              ,#####''   ,,,,##########,,,,          '''####'''          '####       
            ,##' ,,,,###########################,,,                        '##       
           ' ,,###''''                  '''############,,,                           
         ,,##''                                '''############,,,,        ,,,,,,###''
      ,#''                                            '''#######################'''  
     '                                                          ''''####''''         
             ,#######,   #######,   ,#######,      ##                                
            ,#'     '#,  ##    ##  ,#'     '#,    #''#        ,####,    ,#,          
            ##       ##  ##   ,#'  ##            #'  '#       #'       ,# #          
            ##       ##  #######   ##           ,######,      #####,      #          
            '#,     ,#'  ##    ##  '#,     ,#' ,#      #,     #,   #      #          
             '#######'   ##     ##  '#######'  #'      '#     '####' #    #          



                #########################################################
                #                        -***-                          #
                #          Department of theory and spectroscopy        #
                #                                                       #
                #                      Frank Neese                      #
                #                                                       #
                #     Directorship, Architecture, Infrastructure        #
                #                    SHARK, DRIVERS                     #
                #        Core code/Algorithms in most modules           #
                #                                                       #
                #        Max Planck Institute fuer Kohlenforschung      #
                #                Kaiser Wilhelm Platz 1                 #
                #                 D-45470 Muelheim/Ruhr                 #
                #                      Germany                          #
                #                                                       #
                #                  All rights reserved                  #
                #                        -***-                          #
                #########################################################


                         Program Version 6.1.0  -  RELEASE   -


 With contributions from (in alphabetic order):
[Max-Planck-Institut fuer Kohlenforschung]                               
  Daniel Aravena         : Magnetic Suceptibility                        
  Michael Atanasov       : Ab Initio Ligand Field Theory (pilot matlab implementation)
  Alexander A. Auer      : GIAO ZORA, VPT2 properties, NMR spectrum      
  Ute Becker             : All parallelization in ORCA, NUMFREQ, NUMCALC 
  Giovanni Bistoni       : ED, misc. LED, open-shell LED, HFLD           
  Dmytro Bykov           : pre 5.0 version of the SCF Hessian            
  Marcos Casanova-P??ez   : Triplet and SCS-CIS(D). UHF-(DLPNO)-IP/EA/STEOM-CCSD. UHF-CVS-IP/STEOM-CCSD   
  Vijay G. Chilkuri      : MRCI spin determinant printing, contributions to CSF-ICE 
  Pauline Colinet        : FMM embedding                                 
  Dipayan Datta          : RHF DLPNO-CCSD density                        
  Achintya Kumar Dutta   : EOM-CC, STEOM-CC                              
  Nicolas Foglia         : Exact transition moments, OPA infrastructure, MCD improvements    
  Dmitry Ganyushin       : Spin-Orbit,Spin-Spin,Magnetic field MRCI      
  Miquel Garcia-Rates    : C-PCM and meta-GGA Hessian, CCSD/C-PCM, Gaussian charge scheme 
  Tiago L. C. Gouveia    : GS-ROHF, GS-ROCIS                             
  Yang Guo               : DLPNO-NEVPT2, F12-NEVPT2, CIM, IAO-localization        
  Andreas Hansen         : Spin unrestricted coupled pair/coupled cluster methods 
  Ingolf Harden          : AUTO-CI MPn and infrastructure                
  Benjamin Helmich-Paris : MC-RPA, TRAH-(SCF,CASSCF), AVAS, COSX integrals, SCF dyn. polar., MC-PDFT, srDFT 
  Lee Huntington         : MR-EOM, pCC                                   
  Robert Izsak           : Overlap fitted RIJCOSX, COSX-SCS-MP3, EOM     
  Riya Kayal             : Wick's Theorem for AUTO-CI, AUTO-CI UHF-CCSDT 
  Emily Kempfer          : AUTO-CI RHF CISDT and CCSDT, approximate NEVPT4
  Christian Kollmar      : KDIIS, OOCD, Brueckner-CCSD(T), CCSD density, CASPT2, CASPT2-K, improved NEVPT2 
  Axel Koslowski         : Symmetry handling                             
  Simone Kossmann        : meta-GGA functionals, TD-DFT gradient, OOMP2, (MP2 Hessian; deprecated post 5.0) 
  Lucas Lang             : DCDCAS, Hyperfine gauge corrections, ICE-SOC+SSC
  Marvin Lechner         : AUTO-CI (C++ implementation), FIC-MRCC        
  Spencer Leger          : CASSCF response                               
  Dagmar Lenk            : GEPOL surface, SMD, ORCA-2-JSON               
  Dimitrios Liakos       : Extrapolation schemes; Compound Job, Property file
  Dimitrios Manganas     : Further ROCIS development; embedding schemes. LFT, Crystal Embedding 
  Dimitrios Pantazis     : SARC Basis sets                               
  Anastasios Papadopoulos: AUTO-CI, single reference methods and gradients 
  Taras Petrenko         : pre 6.0 DFT Hessian and TD-DFT gradient,  ECA, NRVS 
  Petra Pikulova         : Analytic Raman intensities                    
  Peter Pinski           : DLPNO-MP2, DLPNO-MP2 Gradient                 
  Shashank Vittal Rao    : ES-AILFT, MagRelax                            
  Christoph Reimann      : Effective Core Potentials                     
  Marius Retegan         : Local ZFS, SOC                                
  Christoph Riplinger    : Optimizer, TS searches, QM/MM, DLPNO-CCSD(T), (RO)-DLPNO pert. Triples 
  Michael Roemelt        : Original ROCIS implementation, recursive CI coupling coefficients
  Masaaki Saitow         : Open-shell DLPNO-CCSD energy and density      
  Barbara Sandhoefer     : DKH picture change effects                    
  Yorick L. A. Schmerwitz: GMF and freeze-and-release deltaSCF, NEB S-IDPP initial path                    
  Kantharuban Sivalingam : CASSCF convergence/infrastructure, NEVPT2, NEVPT3, NEVPT4(SD), FIC-MRCI and CEPA variants
  Bernardo de Souza      : ESD, SOC TD-DFT                               
  Georgi L. Stoychev     : AutoAux, RI-MP2 NMR, DLPNO-MP2 response, X2C  
  Van Anh Tran           : RI-MP2 g-tensors                              
  Willem Van den Heuvel  : Paramagnetic NMR                              
  Zikuan Wang            : NOTCH, Electric field optimization            
  Frank Wennmohs         : Technical directorship and infrastructure     
  Hang Xu                : AUTO-CI-Response properties                   
                                                                         
[FACCTs GmbH]                                                            
  Markus Bursch, Nicolas Foglia, Miquel Garcia-Rates, Ingolf Harden, Hagen Neugebauer, Anastasios Papadopoulos, 
  Christoph Riplinger, Bernardo de Souza, Georgi L. Stoychev                                                    
                                                                 
  APM, various basis sets, CI-OPT, improved COSX, DLPNO-Multilevel,           
  DOCKER, DRACO, updates on ESD, Fragmentator, GOAT, IRC, LR-CPCM, L-BFGS, MBIS, meta-GGA TD-DFT gradient, ML-optimized integration grids, 
  MM, NACMEs, nearIR, NEB, NEB-TS, NL-DFT gradient (VV10), 2- and 3-layer-ONIOM, interface openCOSMO-RS, QMMM,   
  Crystal-QMMM, RESP, rigid body optimization, SF, symmetry and pop. for TD-DFT, various functionals, SOLVATOR                                   
                                                                         
[Other institutions]                                                     
  V. Asgeirsson          : NEB                                           
  Christoph Bannwarth    : sTDA-DFT, sTD-DFT, PBEh-3c, B97-3c, D3        
  Giovanni Bistoni       : ETS/NOCV, ADLD/ADEX, COVALED                  
  Martin Brehm           : Molecular dynamics                            
  Ronald Cardenas        : ETS/NOCV                                      
  Martina Colucci        : COVALED                                       
  Sebastian Ehlert       : rSCAN, r2SCAN, r2SCAN-3c, D4, dhf basis sets  
  Marvin Friede          : D4 for Fr, Ra, Ac-Lr                          
  Lars Goerigk           : TD-DFT with DH, B97 family of functionals     
  Stefan Grimme          : VdW corrections, initial TS optimization, DFT functionals, gCP, sTDA/sTD-DF 
  Waldemar Hujo          : DFT-NL                                        
  H. Jonsson             : NEB                                           
  Holger Kruse           : gCP                                           
  Marcel Mueller         : wB97X-3c, vDZP basis set                      
  Hagen Neugebauer       : wr2SCAN, Native XTB                           
  Gianluca Regni         : ADLD/ADEX                                     
  Tobias Risthaus        : pre 6.0 range-separated hybrid DFT and stability analysis
  Lukas Wittmann         : regularized MP2, r2SCAN double-hybrids, wr2SCAN        
                                                                         
We gratefully acknowledge several colleagues who have allowed us to      
interface, adapt or use parts of their codes:                            
  Ed Valeev, F. Pavosevic, A. Kumar             : LibInt (2-el integral package), F12 methods 
  Garnet Chan, S. Sharma, J. Yang, R. Olivares  : DMRG                   
  Ulf Ekstrom                                   : XCFun DFT Library      
  Mihaly Kallay                                 : mrcc  (arbitrary order and MRCC methods)
  Frank Weinhold                                : gennbo (NPA and NBO analysis)           
  Simon Mueller                                 : openCOSMO-RS                            
  Christopher J. Cramer and Donald G. Truhlar   : smd solvation model                     
  S Lehtola, MJT Oliveira, MAL Marques          : LibXC Library                           
  Liviu Ungur et al                             : ANISO software                          


 Your calculation uses the libint2 library for the computation of 2-el integrals
 For citations please refer to: http://libint.valeyev.net

 Your ORCA version has been built with support for libXC version: 7.0.0
 For citations please refer to: https://libxc.gitlab.io

 This ORCA versions uses:
   CBLAS   interface :  Fast vector & matrix operations
   LAPACKE interface :  Fast linear algebra routines
   Shared memory     :  Shared parallel matrices


  ***********************************
  * Starting time: Tue Jul 15 16:51:17 2025
  * Host name:     VITOR
  * Process ID:    18320
  * Working dir.:  C:\Orca\test_run\Acetona
  ***********************************

Warning: RI is on but no J-basis has been assigned. Assigning Def2/J (nothing to worry about!)
================================================================================

----- Orbital basis set information -----
Your calculation utilizes the basis: def2-SVP
   F. Weigend and R. Ahlrichs, Phys. Chem. Chem. Phys. 7, 3297 (2005).

----- AuxJ basis set information -----
Your calculation utilizes the auxiliary basis: def2/J
   H-Rn: F. Weigend, Phys. Chem. Chem. Phys. 8, 1057 (2006).
   Fr-Lr: K. Eichkorn, F. Weigend, O. Treutler, R. Ahlrichs; Theor. Chem. Acc. 97, 119 (1997).

================================================================================
                                        WARNINGS
                       Please study these warnings very carefully!
================================================================================


WARNING: Geometry Optimization
  ===> : Switching off AutoStart
         For restart on a previous wavefunction, please use MOREAD

================================================================================
                                       INPUT FILE
================================================================================
NAME = .\Acetona.inp
|  1> ! PBE0 OPT FREQ def2-SVP pal4

|  2> * xyz 0 1

|  3>    C       -2.08845       -1.63640       -0.00341

|  4>    C       -0.80164       -0.85740       -0.03791

|  5>    H       -2.88872       -1.04100       -0.45128

|  6>    H       -2.34080       -1.87543        1.03226

|  7>    H       -1.98265       -2.55764       -0.58227

|  8>    C        0.47611       -1.64987        0.01777

|  9>    H        0.49734       -2.24930        0.93107

| 10>    H        1.33237       -0.96970        0.01951

| 11>    H        0.54267       -2.29690       -0.86051

| 12>    O       -0.79636        0.37293       -0.06523

| 13> *

| 14> 

| 15> 
| 16>                          ****END OF INPUT****
================================================================================

                       *****************************
                       * Geometry Optimization Run *
                       *****************************

Geometry optimization settings:
Update method            Update   .... BFGS
Choice of coordinates    CoordSys .... (2022) Redundant Internals
Initial Hessian          InHess   .... Almloef's Model
Max. no of cycles        MaxIter  .... 50

Convergence Tolerances:
Energy Change            TolE     ....  5.0000e-06 Eh
Max. Gradient            TolMAXG  ....  3.0000e-04 Eh/bohr
RMS Gradient             TolRMSG  ....  1.0000e-04 Eh/bohr
Max. Displacement        TolMAXD  ....  4.0000e-03 bohr
RMS Displacement         TolRMSD  ....  2.0000e-03 bohr
Strict Convergence                .... False

------------------------------------------------------------------------------
                        ORCA OPTIMIZATION COORDINATE SETUP
------------------------------------------------------------------------------

The optimization will be done in redundant internal coordinates (2022)
Making redundant internal coordinates   ...  (2022 redundants) done
Evaluating the initial hessian          ...  (Almloef) done
Evaluating the coordinates              ...  done
Calculating the B-matrix                .... done
Calculating the G-matrix                .... done
The number of degrees of freedom        ....   34

    -----------------------------------------------------------------
                    Redundant Internal Coordinates


    -----------------------------------------------------------------
         Definition                    Initial Value    Approx d2E/dq
    -----------------------------------------------------------------
      1. B(C   1,C   0)                  1.5046         0.410066   
      2. B(H   2,C   0)                  1.0934         0.355632   
      3. B(H   3,C   0)                  1.0924         0.356885   
      4. B(H   4,C   0)                  1.0931         0.355970   
      5. B(C   5,C   1)                  1.5046         0.410145   
      6. B(H   6,C   5)                  1.0926         0.356611   
      7. B(H   7,C   5)                  1.0935         0.355456   
      8. B(H   8,C   5)                  1.0929         0.356270   
      9. B(O   9,C   1)                  1.2306         1.004886   
     10. A(C   1,C   0,H   3)          109.4252         0.328848   
     11. A(C   1,C   0,H   4)          109.9624         0.328709   
     12. A(C   1,C   0,H   2)          109.5503         0.328657   
     13. A(H   2,C   0,H   4)          108.2306         0.289745   
     14. A(H   3,C   0,H   4)          109.8757         0.289905   
     15. A(H   2,C   0,H   3)          109.7797         0.289862   
     16. A(C   0,C   1,C   5)          116.9207         0.375186   
     17. A(C   5,C   1,O   9)          121.5841         0.436668   
     18. A(C   0,C   1,O   9)          121.4518         0.436653   
     19. A(H   7,C   5,H   8)          108.7734         0.289761   
     20. A(H   6,C   5,H   8)          110.2269         0.289908   
     21. A(C   1,C   5,H   8)          109.4998         0.328765   
     22. A(H   6,C   5,H   7)          108.9463         0.289804   
     23. A(C   1,C   5,H   7)          109.7201         0.328641   
     24. A(C   1,C   5,H   6)          109.6568         0.328817   
     25. D(C   5,C   1,C   0,H   3)     82.8451         0.012454   
     26. D(O   9,C   1,C   0,H   2)     25.6034         0.012454   
     27. D(C   5,C   1,C   0,H   2)   -156.7563         0.012454   
     28. D(O   9,C   1,C   0,H   3)    -94.7952         0.012454   
     29. D(C   5,C   1,C   0,H   4)    -37.9280         0.012454   
     30. D(H   6,C   5,C   1,O   9)    119.1491         0.012459   
     31. D(H   6,C   5,C   1,C   0)    -58.4879         0.012459   
     32. D(H   8,C   5,C   1,C   0)     62.5740         0.012459   
     33. D(H   7,C   5,C   1,O   9)     -0.4740         0.012459   
     34. D(H   7,C   5,C   1,C   0)   -178.1110         0.012459   
    -----------------------------------------------------------------

Number of atoms                         .... 10
Number of degrees of freedom            .... 34


         *************************************************************
         *                GEOMETRY OPTIMIZATION CYCLE   1            *
         *************************************************************
---------------------------------
CARTESIAN COORDINATES (ANGSTROEM)
---------------------------------
  C     -2.088450   -1.636400   -0.003410
  C     -0.801640   -0.857400   -0.037910
  H     -2.888720   -1.041000   -0.451280
  H     -2.340800   -1.875430    1.032260
  H     -1.982650   -2.557640   -0.582270
  C      0.476110   -1.649870    0.017770
  H      0.497340   -2.249300    0.931070
  H      1.332370   -0.969700    0.019510
  H      0.542670   -2.296900   -0.860510
  O     -0.796360    0.372930   -0.065230

----------------------------
CARTESIAN COORDINATES (A.U.)
----------------------------
  NO LB      ZA    FRAG     MASS         X           Y           Z
   0 C     6.0000    0    12.011   -3.946599   -3.092348   -0.006444
   1 C     6.0000    0    12.011   -1.514880   -1.620251   -0.071640
   2 H     1.0000    0     1.008   -5.458890   -1.967205   -0.852796
   3 H     1.0000    0     1.008   -4.423471   -3.544049    1.950689
   4 H     1.0000    0     1.008   -3.746666   -4.833239   -1.100331
   5 C     6.0000    0    12.011    0.899718   -3.117802    0.033580
   6 H     1.0000    0     1.008    0.939836   -4.250561    1.759467
   7 H     1.0000    0     1.008    2.517814   -1.832467    0.036869
   8 H     1.0000    0     1.008    1.025498   -4.340512   -1.626128
   9 O     8.0000    0    15.999   -1.504902    0.704736   -0.123267

--------------------------------
INTERNAL COORDINATES (ANGSTROEM)
--------------------------------
 C      0   0   0     0.000000000000     0.00000000     0.00000000
 C      1   0   0     1.504629929950     0.00000000     0.00000000
 H      1   2   0     1.093398724071   109.55030920     0.00000000
 H      1   2   3     1.092441399939   109.42519031   239.60143519
 H      1   2   3     1.093140282489   109.96240654   118.82837880
 C      2   1   3     1.504577690184   116.92071736   203.24366791
 H      6   2   1     1.092649956665   109.65679406   301.51214945
 H      6   2   1     1.093533467298   109.72011970   181.88903020
 H      6   2   1     1.092910706737   109.49980040    62.57402088
 O      2   1   3     1.230644615517   121.45181147    25.60339033

---------------------------
INTERNAL COORDINATES (A.U.)
---------------------------
 C      0   0   0     0.000000000000     0.00000000     0.00000000
 C      1   0   0     2.843338500506     0.00000000     0.00000000
 H      1   2   0     2.066224143673   109.55030920     0.00000000
 H      1   2   3     2.064415063242   109.42519031   239.60143519
 H      1   2   3     2.065735759861   109.96240654   118.82837880
 C      2   1   3     2.843239781656   116.92071736   203.24366791
 H      6   2   1     2.064809178338   109.65679406   301.51214945
 H      6   2   1     2.066478771470   109.72011970   181.88903020
 H      6   2   1     2.065301924563   109.49980040    62.57402088
 O      2   1   3     2.325581291511   121.45181147    25.60339033

---------------------
BASIS SET INFORMATION
---------------------
There are 3 groups of distinct atoms

 Group   1 Type C   : 7s4p1d contracted to 3s2p1d pattern {511/31/1}
 Group   2 Type H   : 4s1p contracted to 2s1p pattern {31/1}
 Group   3 Type O   : 7s4p1d contracted to 3s2p1d pattern {511/31/1}

Atom   0C    basis set group =>   1
Atom   1C    basis set group =>   1
Atom   2H    basis set group =>   2
Atom   3H    basis set group =>   2
Atom   4H    basis set group =>   2
Atom   5C    basis set group =>   1
Atom   6H    basis set group =>   2
Atom   7H    basis set group =>   2
Atom   8H    basis set group =>   2
Atom   9O    basis set group =>   3
---------------------------------
AUXILIARY/J BASIS SET INFORMATION
---------------------------------
There are 3 groups of distinct atoms

 Group   1 Type C   : 12s5p4d2f1g contracted to 6s4p3d1f1g pattern {711111/2111/211/2/1}
 Group   2 Type H   : 5s2p1d contracted to 3s1p1d pattern {311/2/1}
 Group   3 Type O   : 12s5p4d2f1g contracted to 6s4p3d1f1g pattern {711111/2111/211/2/1}

Atom   0C    basis set group =>   1
Atom   1C    basis set group =>   1
Atom   2H    basis set group =>   2
Atom   3H    basis set group =>   2
Atom   4H    basis set group =>   2
Atom   5C    basis set group =>   1
Atom   6H    basis set group =>   2
Atom   7H    basis set group =>   2
Atom   8H    basis set group =>   2
Atom   9O    basis set group =>   3


           ************************************************************
           *        Program running with 4 parallel MPI-processes     *
           *              working on a common directory               *
           ************************************************************
------------------------------------------------------------------------------
                             ORCA STARTUP CALCULATIONS
                           -- RI-GTO INTEGRALS CHOSEN --
------------------------------------------------------------------------------
------------------------------------------------------------------------------
                   ___                                                        
                  /   \      - P O W E R E D   B Y -                         
                 /     \                                                     
                 |  |  |   _    _      __       _____    __    __             
                 |  |  |  | |  | |    /  \     |  _  \  |  |  /  |          
                  \  \/   | |  | |   /    \    | | | |  |  | /  /          
                 / \  \   | |__| |  /  /\  \   | |_| |  |  |/  /          
                |  |  |   |  __  | /  /__\  \  |    /   |      \           
                |  |  |   | |  | | |   __   |  |    \   |  |\   \          
                \     /   | |  | | |  |  |  |  | |\  \  |  | \   \       
                 \___/    |_|  |_| |__|  |__|  |_| \__\ |__|  \__/        
                                                                              
                      - O R C A' S   B I G   F R I E N D -                    
                                      &                                       
                       - I N T E G R A L  F E E D E R -                       
                                                                              
 v1 FN, 2020, v2 2021, v3 2022-2024                                           
------------------------------------------------------------------------------


----------------------
SHARK INTEGRAL PACKAGE
----------------------

Number of atoms                             ...     10
Number of basis functions                   ...     86
Number of shells                            ...     42
Maximum angular momentum                    ...      2
Integral batch strategy                     ... SHARK/LIBINT Hybrid
RI-J (if used) integral strategy            ... SPLIT-RIJ (Revised 2003 algorithm where possible)
Printlevel                                  ...      1
Contraction scheme used                     ... SEGMENTED contraction
Prescreening option                         ... SCHWARTZ
   Thresh                                   ... 2.500e-11
   Tcut                                     ... 2.500e-12
   Tpresel                                  ... 2.500e-12 
Coulomb Range Separation                    ... NOT USED
Exchange Range Separation                   ... NOT USED
Multipole approximations                    ... NOT USED
Finite Nucleus Model                        ... NOT USED
CABS basis                                  ... NOT available
Auxiliary Coulomb fitting basis             ... AVAILABLE
   # of basis functions in Aux-J            ...    262
   # of shells in Aux-J                     ...     90
   Maximum angular momentum in Aux-J        ...      4
Auxiliary J/K fitting basis                 ... NOT available
Auxiliary Correlation fitting basis         ... NOT available
Auxiliary 'external' fitting basis          ... NOT available

Checking pre-screening integrals            ... done (  0.0 sec) Dimension = 42
   => SHARK Basis and OBASIS are compatible. Storing Pre-screening
Shell pair information
Shell pair cut-off parameter TPreSel        ...   2.5e-12
Total number of shell pairs                 ...       903
Shell pairs after pre-screening             ...       899
Total number of primitive shell pairs       ...      3151
Primitive shell pairs kept                  ...      2595
          la=0 lb=0:    297 shell pairs
          la=1 lb=0:    335 shell pairs
          la=1 lb=1:    105 shell pairs
          la=2 lb=0:     96 shell pairs
          la=2 lb=1:     56 shell pairs
          la=2 lb=2:     10 shell pairs

Checking whether 4 symmetric matrices of dimension 86 fit in memory
:Max Core in MB      =   4096.00
 MB in use           =      4.17
 MB left             =   4091.83
 MB needed           =      0.11
 Data fit in memory  = YES
Calculating RI/J V-Matrix + Cholesky decomp.... done (  0.0 sec)
Calculating Nuclear repulsion               ... done (  0.0 sec) ENN=    119.330384548581 Eh

Diagonalization of the overlap matrix:
Smallest eigenvalue                        ... 3.332e-03
Time for diagonalization                   ...    0.005 sec
Threshold for overlap eigenvalues          ... 1.000e-07
Number of eigenvalues below threshold      ... 0
Time for construction of square roots      ...    0.001 sec
Total time needed                          ...    0.009 sec

-------------------
DFT GRID GENERATION
-------------------

General Integration Accuracy     IntAcc      ... 4.388
Radial Grid Type                 RadialGrid  ... OptM3 with GC (2021)
Angular Grid (max. ang.)         AngularGrid ... 4 (Lebedev-302)
Angular grid pruning method      GridPruning ... 4 (adaptive)
Weight generation scheme         WeightScheme... mBecke (2022)
Basis function cutoff            BFCut       ... 1.0000e-11
Integration weight cutoff        WCut        ... 1.0000e-14
Partially contracted basis set               ... off
Rotationally invariant grid construction     ... off
Angular grids for H and He will be reduced by one unit

Total number of grid points                  ...    43743
Total number of batches                      ...      688
Average number of points per batch           ...       63
Average number of grid points per atom       ...     4374

--------------------
COSX GRID GENERATION
--------------------

GRIDX 1
-------
General Integration Accuracy     IntAcc      ... 3.816
Radial Grid Type                 RadialGrid  ... OptM3 with GC (2021)
Angular Grid (max. ang.)         AngularGrid ... 1 (Lebedev-50)
Angular grid pruning method      GridPruning ... 4 (adaptive)
Weight generation scheme         WeightScheme... mBecke (2022)
Basis function cutoff            BFCut       ... 1.0000e-11
Integration weight cutoff        WCut        ... 1.0000e-14
Partially contracted basis set               ... on
Rotationally invariant grid construction     ... off
Angular grids for H and He will be reduced by one unit

Total number of grid points                  ...     5627
Total number of batches                      ...       49
Average number of points per batch           ...      114
Average number of grid points per atom       ...      563
UseSFitting                                  ... on

GRIDX 2
-------
General Integration Accuracy     IntAcc      ... 4.020
Radial Grid Type                 RadialGrid  ... OptM3 with GC (2021)
Angular Grid (max. ang.)         AngularGrid ... 2 (Lebedev-110)
Angular grid pruning method      GridPruning ... 4 (adaptive)
Weight generation scheme         WeightScheme... mBecke (2022)
Basis function cutoff            BFCut       ... 1.0000e-11
Integration weight cutoff        WCut        ... 1.0000e-14
Partially contracted basis set               ... on
Rotationally invariant grid construction     ... off
Angular grids for H and He will be reduced by one unit

Total number of grid points                  ...    12017
Total number of batches                      ...       98
Average number of points per batch           ...      122
Average number of grid points per atom       ...     1202
UseSFitting                                  ... on

GRIDX 3
-------
General Integration Accuracy     IntAcc      ... 4.338
Radial Grid Type                 RadialGrid  ... OptM3 with GC (2021)
Angular Grid (max. ang.)         AngularGrid ... 3 (Lebedev-194)
Angular grid pruning method      GridPruning ... 4 (adaptive)
Weight generation scheme         WeightScheme... mBecke (2022)
Basis function cutoff            BFCut       ... 1.0000e-11
Integration weight cutoff        WCut        ... 1.0000e-14
Partially contracted basis set               ... on
Rotationally invariant grid construction     ... off
Angular grids for H and He will be reduced by one unit

Total number of grid points                  ...    26445
Total number of batches                      ...      210
Average number of points per batch           ...      125
Average number of grid points per atom       ...     2644
UseSFitting                                  ... on
Grids setup in   0.4 sec
Initializing property integral containers    ... done (  0.0 sec)

SHARK setup successfully completed in   0.5 seconds

Maximum memory used throughout the entire STARTUP-calculation: 13.4 MB


           ************************************************************
           *        Program running with 4 parallel MPI-processes     *
           *              working on a common directory               *
           ************************************************************
-------------------------------------------------------------------------------
                                 ORCA GUESS
                   Start orbitals & Density for SCF / CASSCF
-------------------------------------------------------------------------------

------------
SCF SETTINGS
------------
Hamiltonian:
 Density Functional     Method          .... DFT(GTOs)
 Exchange Functional    Exchange        .... PBE
   PBE kappa parameter   XKappa         ....  0.804000
   PBE mue parameter    XMuePBE         ....  0.219520
 Correlation Functional Correlation     .... PBE
   PBE beta parameter  CBetaPBE         ....  0.066725
 LDA part of GGA corr.  LDAOpt          .... PW91-LDA
 Gradients option       PostSCFGGA      .... off
 Hybrid DFT is turned on
   Fraction HF Exchange ScalHFX         ....  0.250000
   Scaling of DF-GGA-X  ScalDFX         ....  0.750000
   Scaling of DF-GGA-C  ScalDFC         ....  1.000000
   Scaling of DF-LDA-C  ScalLDAC        ....  1.000000
   Perturbative correction              ....  0.000000
   NL short-range parameter             ....  6.900000
 RI-approximation to the Coulomb term is turned on
   Number of AuxJ basis functions       .... 262
   RIJ-COSX (HFX calculated with COS-X)).... on


General Settings:
 Integral files         IntName         .... .\Acetona
 Hartree-Fock type      HFTyp           .... RHF
 Total Charge           Charge          ....    0
 Multiplicity           Mult            ....    1
 Number of Electrons    NEL             ....   32
 Basis Dimension        Dim             ....   86
 Nuclear Repulsion      ENuc            ....    119.3303845486 Eh

Convergence Acceleration:
 AO-DIIS                CNVDIIS         .... on
   Start iteration      DIISMaxIt       ....    12
   Startup error        DIISStart       ....  0.200000
   # of expansion vecs  DIISMaxEq       ....     5
   Bias factor          DIISBfac        ....   1.050
   Max. coefficient     DIISMaxC        ....  10.000
 MO-DIIS                CNVKDIIS        .... off
 Trust-Rad. Augm. Hess. CNVTRAH         .... auto
   Auto Start mean grad. ratio tolernc. ....  1.125000
   Auto Start start iteration           ....    50
   Auto Start num. interpolation iter.  ....    10
   Max. Number of Micro iterations      ....    24
   Max. Number of Macro iterations      .... Maxiter - #DIIS iter
   Number of Davidson start vectors     ....     2
   Converg. threshold    (grad. norm)   ....   1.000e-05
   Grad. Scal. Fac. for Micro threshold ....   0.100
   Minimum threshold for Micro iter.    ....   1.000e-02
   NR start threshold (gradient norm)   ....   1.000e-04
   Initial trust radius                 ....   0.400
   Minimum AH scaling param. (alpha)    ....   1.000
   Maximum AH scaling param. (alpha)    .... 1000.000
   Quad. conv. algorithm                .... NR
   White noise on init. David. guess    .... on
   Maximum white noise                  ....   0.010
   Pseudo random numbers                .... off
   Inactive MOs                         .... canonical
   Orbital update algorithm             .... Taylor
   Preconditioner                       .... Diag
   Full preconditioner red. dimension   ....   250
 SOSCF                 CNVSOSCF           .... on
   Start iteration     SOSCFMaxIt         ....   150
   Startup grad/error  SOSCFStart         ....  0.003300
   Hessian update      SOSCFHessUp        .... L-BFGS
   Autom. constraints  SOSCFAutoConstrain .... off
 Level Shifting         CNVShift        .... on
   Level shift para.    LevelShift      ....    0.2500
   Turn off err/grad.   ShiftErr        ....    0.0010
 Zerner damping         CNVZerner       .... off
 Static damping         CNVDamp         .... on
   Fraction old density DampFac         ....    0.7000
   Max. Damping (<1)    DampMax         ....    0.9800
   Min. Damping (>=0)   DampMin         ....    0.0000
   Turn off err/grad.   DampErr         ....    0.1000

SCF Procedure:
 Maximum # iterations   MaxIter         ....   125
 SCF integral mode      SCFMode         .... Direct
   Integral package                     .... SHARK and LIBINT hybrid scheme
 Reset frequency        DirectResetFreq ....    20
 Integral Threshold     Thresh          ....  2.500e-11 Eh
 Primitive CutOff       TCut            ....  2.500e-12 Eh

Convergence Tolerance:
 Convergence Check Mode ConvCheckMode   .... Total+1el-Energy
 Convergence forced     ConvForced      .... 0
 Energy Change          TolE            ....  1.000e-08 Eh
 1-El. energy change                    ....  1.000e-05 Eh
 Orbital Gradient       TolG            ....  1.000e-05
 Orbital Rotation angle TolX            ....  1.000e-05
 DIIS Error             TolErr          ....  5.000e-07

------------------------------
INITIAL GUESS: MODEL POTENTIAL
------------------------------
Loading Hartree-Fock densities                     ... done
Calculating cut-offs                               ... done
Initializing the effective Hamiltonian             ... done
Setting up the integral package (SHARK)            ... done
Starting the Coulomb interaction                   ... done (   0.0 sec)
Making the grid                                    ... done (   0.1 sec)
Mapping shells                                     ... done
Starting the XC term evaluation                    ... done (   0.0 sec)
  promolecular density results
     # of electrons  =     32.000009801
     EX              =    -25.222593076
     EC              =     -1.032972652
     EX+EC           =    -26.255565729
Transforming the Hamiltonian                       ... done (   0.0 sec)
Diagonalizing the Hamiltonian                      ... done (   0.0 sec)
Back transforming the eigenvectors                 ... done (   0.0 sec)
Now organizing SCF variables                       ... done
                      ------------------
                      INITIAL GUESS DONE (   0.2 sec)
                      ------------------
             **** ENERGY FILE WAS UPDATED (.\Acetona.en.tmp) ****
Finished Guess after   0.2 sec
Maximum memory used throughout the entire GUESS-calculation: 6.5 MB


           ************************************************************
           *        Program running with 4 parallel MPI-processes     *
           *              working on a common directory               *
           ************************************************************

-------------------------------------------------------------------------------------------
                                      ORCA LEAN-SCF
                              memory conserving SCF solver
-------------------------------------------------------------------------------------------

----------------------------------------D-I-I-S--------------------------------------------
Iteration    Energy (Eh)           Delta-E    RMSDP     MaxDP     DIISErr   Damp  Time(sec)
-------------------------------------------------------------------------------------------
               ***  Starting incremental Fock matrix formation  ***
    1    -192.6335943462995886     0.00e+00  1.24e-02  8.99e-02  2.39e-01  0.700   0.4
    2    -192.7045815359752794    -7.10e-02  8.35e-03  6.03e-02  9.94e-02  0.700   0.3
                               ***Turning on AO-DIIS***
    3    -192.7317350021899358    -2.72e-02  2.77e-03  1.72e-02  4.27e-02  0.700   0.3
    4    -192.7481954703216331    -1.65e-02  4.33e-03  2.31e-02  2.12e-02  0.000   0.3
    5    -192.7840471763642256    -3.59e-02  1.04e-03  7.01e-03  7.38e-03  0.000   0.3
                              *** Initializing SOSCF ***
---------------------------------------S-O-S-C-F--------------------------------------
Iteration    Energy (Eh)           Delta-E    RMSDP     MaxDP     MaxGrad    Time(sec)
--------------------------------------------------------------------------------------
    6    -192.7843110205750747    -2.64e-04  3.94e-04  3.37e-03  1.56e-03     0.3
               *** Restarting incremental Fock matrix formation ***
    7    -192.7843311101034089    -2.01e-05  2.68e-04  2.31e-03  2.39e-04     0.3
    8    -192.7843318751324375    -7.65e-07  4.34e-05  4.08e-04  1.46e-04     0.3
    9    -192.7843322682381029    -3.93e-07  3.08e-05  2.74e-04  3.34e-05     0.3
   10    -192.7843322698261375    -1.59e-09  6.43e-06  7.45e-05  5.17e-05     0.4
                 **** Energy Check signals convergence ****

               *****************************************************
               *                     SUCCESS                       *
               *           SCF CONVERGED AFTER  10 CYCLES          *
               *****************************************************

Recomputing exchange energy using gridx3       ... done (    0.438 sec)
Old exchange energy                            :     -6.459908715 Eh
New exchange energy                            :     -6.459908088 Eh
Exchange energy change after final integration :      0.000000627 Eh
Total energy after final integration           :   -192.784331655 Eh
             **** ENERGY FILE WAS UPDATED (.\Acetona.en.tmp) ****

----------------
TOTAL SCF ENERGY
----------------

Total Energy       :       -192.78433165524331 Eh           -5245.92836 eV

Components:
Nuclear Repulsion  :        119.33038454858067 Eh            3247.14485 eV
Electronic Energy  :       -312.11471683034893 Eh           -8493.07322 eV
One Electron Energy:       -496.99457243059857 Eh          -13523.90986 eV
Two Electron Energy:        184.87985560024964 Eh            5030.83663 eV

Virial components:
Potential Energy   :       -383.74701723241844 Eh          -10442.28721 eV
Kinetic Energy     :        190.96268557717511 Eh            5196.35885 eV
Virial Ratio       :          2.00953927764769

DFT components:
N(Alpha)           :       15.999993298989 electrons
N(Beta)            :       15.999993298989 electrons
N(Total)           :       31.999986597978 electrons
E(X)               :      -19.317968545184 Eh       
E(C)               :       -1.048384919441 Eh       
E(XC)              :      -20.366353464625 Eh       

---------------
SCF CONVERGENCE
---------------

  Last Energy change         ...    1.5880e-09  Tolerance :   1.0000e-08
  Last MAX-Density change    ...    7.4483e-05  Tolerance :   1.0000e-07
  Last RMS-Density change    ...    6.4335e-06  Tolerance :   5.0000e-09
  Last DIIS Error            ...    1.5642e-03  Tolerance :   5.0000e-07
  Last Orbital Gradient      ...    5.1702e-05  Tolerance :   1.0000e-05
  Last Orbital Rotation      ...    5.2543e-05  Tolerance :   1.0000e-05


----------------
ORBITAL ENERGIES
----------------

  NO   OCC          E(Eh)            E(eV) 
   0   2.0000     -19.194176      -522.3001 
   1   2.0000     -10.321250      -280.8555 
   2   2.0000     -10.238644      -278.6077 
   3   2.0000     -10.238522      -278.6043 
   4   2.0000      -1.044653       -28.4265 
   5   2.0000      -0.789400       -21.4807 
   6   2.0000      -0.728111       -19.8129 
   7   2.0000      -0.543365       -14.7857 
   8   2.0000      -0.479554       -13.0493 
   9   2.0000      -0.472394       -12.8545 
  10   2.0000      -0.463551       -12.6139 
  11   2.0000      -0.424272       -11.5450 
  12   2.0000      -0.402845       -10.9620 
  13   2.0000      -0.389300       -10.5934 
  14   2.0000      -0.357167        -9.7190 
  15   2.0000      -0.259189        -7.0529 
  16   0.0000      -0.011352        -0.3089 
  17   0.0000       0.062104         1.6899 
  18   0.0000       0.116938         3.1820 
  19   0.0000       0.123068         3.3489 
  20   0.0000       0.134198         3.6517 
  21   0.0000       0.153046         4.1646 
  22   0.0000       0.158127         4.3029 
  23   0.0000       0.205211         5.5841 
  24   0.0000       0.279756         7.6125 
  25   0.0000       0.286269         7.7898 
  26   0.0000       0.420463        11.4414 
*Only the first 10 virtual orbitals were printed.

                    ********************************
                    * MULLIKEN POPULATION ANALYSIS *
                    ********************************

-----------------------
MULLIKEN ATOMIC CHARGES
-----------------------
   0 C :   -0.052545
   1 C :   -0.027682
   2 H :    0.066849
   3 H :    0.076388
   4 H :    0.046827
   5 C :   -0.054856
   6 H :    0.063597
   7 H :    0.062163
   8 H :    0.064168
   9 O :   -0.244909
Sum of atomic charges:   -0.0000000

--------------------------------
MULLIKEN REDUCED ORBITAL CHARGES
--------------------------------
  0 C s       :     3.003637  s :     3.003637
      pz      :     1.030492  p :     3.024962
      px      :     0.989032
      py      :     1.005438
      dz2     :     0.005384  d :     0.023947
      dxz     :     0.002738
      dyz     :     0.004747
      dx2y2   :     0.004644
      dxy     :     0.006433

  1 C s       :     3.188690  s :     3.188690
      pz      :     0.772571  p :     2.742346
      px      :     1.054078
      py      :     0.915697
      dz2     :     0.004784  d :     0.096645
      dxz     :     0.005111
      dyz     :     0.019108
      dx2y2   :     0.024443
      dxy     :     0.043200

  2 H s       :     0.909181  s :     0.909181
      pz      :     0.006529  p :     0.023971
      px      :     0.009451
      py      :     0.007990

  3 H s       :     0.898104  s :     0.898104
      pz      :     0.014015  p :     0.025508
      px      :     0.005528
      py      :     0.005965

  4 H s       :     0.928493  s :     0.928493
      pz      :     0.007946  p :     0.024681
      px      :     0.004579
      py      :     0.012157

  5 C s       :     3.002774  s :     3.002774
      pz      :     1.014804  p :     3.028098
      px      :     0.987964
      py      :     1.025330
      dz2     :     0.005114  d :     0.023984
      dxz     :     0.001159
      dyz     :     0.006742
      dx2y2   :     0.003579
      dxy     :     0.007390

  6 H s       :     0.911187  s :     0.911187
      pz      :     0.012127  p :     0.025216
      px      :     0.004725
      py      :     0.008363

  7 H s       :     0.914181  s :     0.914181
      pz      :     0.004642  p :     0.023656
      px      :     0.010049
      py      :     0.008964

  8 H s       :     0.910687  s :     0.910687
      pz      :     0.011560  p :     0.025144
      px      :     0.004763
      py      :     0.008822

  9 O s       :     3.783308  s :     3.783308
      pz      :     1.297882  p :     4.444213
      px      :     1.815980
      py      :     1.330351
      dz2     :     0.001870  d :     0.017389
      dxz     :     0.000014
      dyz     :     0.005754
      dx2y2   :     0.006013
      dxy     :     0.003738



                     *******************************
                     * LOEWDIN POPULATION ANALYSIS *
                     *******************************

----------------------
LOEWDIN ATOMIC CHARGES
----------------------
   0 C :   -0.092261
   1 C :    0.083549
   2 H :    0.046204
   3 H :    0.053961
   4 H :    0.037363
   5 C :   -0.092495
   6 H :    0.046855
   7 H :    0.042910
   8 H :    0.046262
   9 O :   -0.172348

-------------------------------
LOEWDIN REDUCED ORBITAL CHARGES
-------------------------------
  0 C s       :     2.848426  s :     2.848426
      pz      :     1.067515  p :     3.177143
      px      :     1.045868
      py      :     1.063760
      dz2     :     0.014946  d :     0.066692
      dxz     :     0.007356
      dyz     :     0.012958
      dx2y2   :     0.012845
      dxy     :     0.018586

  1 C s       :     2.888065  s :     2.888065
      pz      :     0.748671  p :     2.817041
      px      :     1.046329
      py      :     1.022040
      dz2     :     0.011532  d :     0.211345
      dxz     :     0.008630
      dyz     :     0.032434
      dx2y2   :     0.056941
      dxy     :     0.101809

  2 H s       :     0.885643  s :     0.885643
      pz      :     0.017219  p :     0.068153
      px      :     0.029496
      py      :     0.021438

  3 H s       :     0.876455  s :     0.876455
      pz      :     0.038600  p :     0.069584
      px      :     0.015927
      py      :     0.015057

  4 H s       :     0.894041  s :     0.894041
      pz      :     0.020984  p :     0.068596
      px      :     0.013461
      py      :     0.034152

  5 C s       :     2.849077  s :     2.849077
      pz      :     1.061352  p :     3.176581
      px      :     1.044746
      py      :     1.070484
      dz2     :     0.014766  d :     0.066837
      dxz     :     0.002522
      dyz     :     0.018387
      dx2y2   :     0.009618
      dxy     :     0.021543

  6 H s       :     0.883935  s :     0.883935
      pz      :     0.032807  p :     0.069210
      px      :     0.013736
      py      :     0.022667

  7 H s       :     0.889267  s :     0.889267
      pz      :     0.012130  p :     0.067823
      px      :     0.031552
      py      :     0.024141

  8 H s       :     0.884518  s :     0.884518
      pz      :     0.031246  p :     0.069220
      px      :     0.013904
      py      :     0.024070

  9 O s       :     3.565948  s :     3.565948
      pz      :     1.298549  p :     4.576802
      px      :     1.817116
      py      :     1.461137
      dz2     :     0.004009  d :     0.029598
      dxz     :     0.000013
      dyz     :     0.006772
      dx2y2   :     0.012419
      dxy     :     0.006385



                      *****************************
                      * MAYER POPULATION ANALYSIS *
                      *****************************

  NA   - Mulliken gross atomic population
  ZA   - Total nuclear charge
  QA   - Mulliken gross atomic charge
  VA   - Mayer's total valence
  BVA  - Mayer's bonded valence
  FA   - Mayer's free valence

  ATOM       NA         ZA         QA         VA         BVA        FA
  0 C      6.0525     6.0000    -0.0525     3.8290     3.8290     0.0000
  1 C      6.0277     6.0000    -0.0277     4.2424     4.2424     0.0000
  2 H      0.9332     1.0000     0.0668     1.0108     1.0108     0.0000
  3 H      0.9236     1.0000     0.0764     0.9933     0.9933     0.0000
  4 H      0.9532     1.0000     0.0468     0.9927     0.9927     0.0000
  5 C      6.0549     6.0000    -0.0549     3.8334     3.8334     0.0000
  6 H      0.9364     1.0000     0.0636     0.9910     0.9910    -0.0000
  7 H      0.9378     1.0000     0.0622     1.0138     1.0138     0.0000
  8 H      0.9358     1.0000     0.0642     0.9909     0.9909     0.0000
  9 O      8.2449     8.0000    -0.2449     2.2079     2.2079    -0.0000

  Mayer bond orders larger than 0.100000
B(  0-C ,  1-C ) :   1.0016 B(  0-C ,  2-H ) :   0.9584 B(  0-C ,  3-H ) :   0.9482 
B(  0-C ,  4-H ) :   0.9587 B(  1-C ,  5-C ) :   1.0106 B(  1-C ,  9-O ) :   2.1238 
B(  5-C ,  6-H ) :   0.9544 B(  5-C ,  7-H ) :   0.9595 B(  5-C ,  8-H ) :   0.9488 


-------
TIMINGS
-------

Total SCF time: 0 days 0 hours 0 min 4 sec 

Total time                  ....       4.130 sec
Sum of individual times     ....       3.727 sec  ( 90.2%)

SCF preparation             ....       0.158 sec  (  3.8%)
Fock matrix formation       ....       2.824 sec  ( 68.4%)
  Startup                   ....       0.017 sec  (  0.6% of F)
  Split-RI-J                ....       0.238 sec  (  8.4% of F)
  Chain of spheres X        ....       1.757 sec  ( 62.2% of F)
  XC integration            ....       0.850 sec  ( 30.1% of F)
    Basis function eval.    ....       0.227 sec  ( 26.7% of XC)
    Density eval.           ....       0.110 sec  ( 12.9% of XC)
    XC-Functional eval.     ....       0.041 sec  (  4.8% of XC)
    XC-Potential eval.      ....       0.209 sec  ( 24.6% of XC)
Diagonalization             ....       0.000 sec  (  0.0%)
Density matrix formation    ....       0.197 sec  (  4.8%)
Total Energy calculation    ....       0.086 sec  (  2.1%)
Population analysis         ....       0.059 sec  (  1.4%)
Orbital Transformation      ....       0.023 sec  (  0.6%)
Orbital Orthonormalization  ....       0.000 sec  (  0.0%)
DIIS solution               ....       0.202 sec  (  4.9%)
SOSCF solution              ....       0.178 sec  (  4.3%)
Finished LeanSCF after   4.2 sec

Maximum memory used throughout the entire LEANSCF-calculation: 7.8 MB


           ************************************************************
           *        Program running with 4 parallel MPI-processes     *
           *              working on a common directory               *
           ************************************************************

------------------------------------------------------------------------------
                         ORCA PROPERTY INTEGRAL CALCULATIONS
------------------------------------------------------------------------------

GBWName                                   ... .\Acetona.gbw
Number of atoms                           ...     10
Number of basis functions                 ...     86
Max core memory                           ...   4096 MB

Dipole integrals                          ... YES
Quadrupole integrals                      ...  NO
Linear momentum integrals                 ...  NO
Angular momentum integrals                ...  NO
Higher moments length integrals           ...  NO
Higher moments velocity integrals         ...  NO
Kinetic energy integrals                  ...  NO
GIAO right hand sides                     ...  NO
GIAO dipole derivative integrals          ...  NO
SOC integrals                             ...  NO
EPR diamagnetic integrals (GIAO)          ...  NO
EPR gauge integrals                       ...  NO
Field gradient integrals                  ...  NO (   0 nuclei)
Spin-dipole/Fermi contact integrals       ...  NO (   0 nuclei)
Contact density integrals                 ...  NO (   0 nuclei)
Nucleus-orbit integrals                   ...  NO (   0 nuclei)
Geometric perturbations                   ...  NO (  10 nuclei)

Choice of electric origin   ... Center of mass
Position of electric origin ... ( -1.5167, -1.7856, -0.0402) 
Choice of magnetic origin   ... GIAO
Position of magnetic origin ... (  0.0000,  0.0000,  0.0000) 

Calculating integrals                     ... Electric Dipole (Length)     done (  0.0 sec)

Property integrals calculated in   0.0 sec

Maximum memory used throughout the entire PROPINT-calculation: 6.7 MB

-------------------------   --------------------
FINAL SINGLE POINT ENERGY      -192.784331655243
-------------------------   --------------------



           ************************************************************
           *        Program running with 4 parallel MPI-processes     *
           *              working on a common directory               *
           ************************************************************
------------------------------------------------------------------------------
                         ORCA SCF GRADIENT CALCULATION
------------------------------------------------------------------------------

Nuc. rep. gradient        (SHARK) ... done (  0.0 sec)
HCore & Overlap gradient  (SHARK) ... done (  0.0 sec)
Split-RIJ-J gradient      (SHARK) ... done (  0.1 sec)
done (  1.8 sec)
XC gradient                       ... done (  0.4 sec)

------------------
CARTESIAN GRADIENT
------------------

   1   C   :   -0.003542315   -0.003454152    0.011064256
   2   C   :   -0.001135908   -0.040234338   -0.004076254
   3   H   :    0.002929067   -0.003312174   -0.002230537
   4   H   :    0.001860886    0.002868694   -0.005023521
   5   H   :    0.001079506    0.006848359   -0.001375425
   6   C   :    0.000536562   -0.009613236    0.001656421
   7   H   :   -0.000066091    0.006943023   -0.002533469
   8   H   :   -0.001492407   -0.002474229   -0.000295365
   9   H   :   -0.000621973    0.006902976    0.001859303
  10   O   :    0.000452672    0.035525076    0.000954592

Difference to translation invariance:
           :    0.0000000000    0.0000000002   -0.0000000001

Difference to rotation invariance:
           :   -0.0000102537   -0.0000446849   -0.0000026555

Norm of the Cartesian gradient     ...    0.0580359223
RMS gradient                       ...    0.0105958613
MAX gradient                       ...    0.0402343385

-------
TIMINGS
-------

Total SCF gradient time     ....        2.328 sec

One electron gradient       ....       0.018 sec  (  0.8%)
RI-J Coulomb gradient       ....       0.110 sec  (  4.7%)
COSX gradient               ....       1.770 sec  ( 76.0%)
XC gradient                 ....       0.426 sec  ( 18.3%)

Maximum memory used throughout the entire SCFGRAD-calculation: 10.1 MB
------------------------------------------------------------------------------
                         ORCA GEOMETRY RELAXATION STEP
------------------------------------------------------------------------------

Reading the OPT-File                    .... done
Getting information on internals        .... done
Copying old internal coords+grads       .... done
Making the new internal coordinates     .... (2022 redundants) done
Validating the new internal coordinates .... (2022 redundants) done
Calculating the B-matrix                .... done
Calculating the G,G- and P matrices     .... done
Transforming gradient to internals      .... done
Projecting the internal gradient        .... done
Number of atoms                         ....  10
Number of internal coordinates          ....  34
Current Energy                          ....  -192.784331655 Eh
Current gradient norm                   ....     0.058035922 Eh/bohr
Maximum allowed component of the step   ....  0.300
Current trust radius                    ....  0.300
Evaluating the initial hessian          ....  (Almloef) done
Projecting the Hessian                  .... done
Forming the augmented Hessian           .... done
Diagonalizing the augmented Hessian     .... done
Last element of RFO vector              ....  0.990626312
Lowest eigenvalues of augmented Hessian:
 -0.002412743  0.012457401  0.012472678  0.012722731  0.138116243
Length of the computed step             ....  0.137892377
The final length of the internal step   ....  0.137892377
Converting the step to Cartesian space:
 Initial RMS(Int)=    0.0236483476
Transforming coordinates:
 Iter   0:  RMS(Cart)=    0.0180454143 RMS(Int)=    0.0237285781
done
Storing new coordinates                 .... done

                                .--------------------.
          ----------------------|Geometry convergence|-------------------------
          Item                value                   Tolerance       Converged
          ---------------------------------------------------------------------
          RMS gradient        0.0067255607            0.0001000000      NO
          MAX gradient        0.0354967576            0.0003000000      NO
          RMS step            0.0236483476            0.0020000000      NO
          MAX step            0.0727457027            0.0040000000      NO
          -------------------------------------------------------------------------
          ........................................................
          Max(Bonds)      0.0186      Max(Angles)    1.33
          Max(Dihed)        4.17      Max(Improp)    0.00
          ---------------------------------------------------------------------

The optimization has not yet converged - more geometry cycles are needed


    ---------------------------------------------------------------------------
                         Redundant Internal Coordinates
                            (Angstroem and degrees)

        Definition                    Value    dE/dq     Step     New-Value
    ----------------------------------------------------------------------------
     1. B(C   1,C   0)                1.5046 -0.003462  0.0044    1.5091   
     2. B(H   2,C   0)                1.0934 -0.003034  0.0045    1.0979   
     3. B(H   3,C   0)                1.0924 -0.005819  0.0086    1.1010   
     4. B(H   4,C   0)                1.0931 -0.004939  0.0073    1.1004   
     5. B(C   5,C   1)                1.5046 -0.002297  0.0029    1.5075   
     6. B(H   6,C   5)                1.0926 -0.005929  0.0087    1.1014   
     7. B(H   7,C   5)                1.0935 -0.002708  0.0040    1.0975   
     8. B(H   8,C   5)                1.0929 -0.005618  0.0083    1.1012   
     9. B(O   9,C   1)                1.2306  0.035497 -0.0186    1.2120   
    10. A(C   1,C   0,H   3)          109.43  0.000378   -0.26    109.17   
    11. A(C   1,C   0,H   4)          109.96 -0.004855    1.01    110.97   
    12. A(C   1,C   0,H   2)          109.55  0.000247    0.03    109.58   
    13. A(H   2,C   0,H   4)          108.23 -0.001926    0.87    109.10   
    14. A(H   3,C   0,H   4)          109.88  0.004495   -0.99    108.89   
    15. A(H   2,C   0,H   3)          109.78  0.001641   -0.65    109.13   
    16. A(C   0,C   1,C   5)          116.92 -0.000217    0.08    117.00   
    17. A(C   5,C   1,O   9)          121.58 -0.000244    0.07    121.65   
    18. A(C   0,C   1,O   9)          121.45  0.000469   -0.02    121.43   
    19. A(H   7,C   5,H   8)          108.77 -0.001163    0.37    109.15   
    20. A(H   6,C   5,H   8)          110.23  0.005261   -1.33    108.90   
    21. A(C   1,C   5,H   8)          109.50 -0.002759    0.41    109.91   
    22. A(H   6,C   5,H   7)          108.95 -0.000752    0.34    109.29   
    23. A(C   1,C   5,H   7)          109.72  0.001106   -0.04    109.68   
    24. A(C   1,C   5,H   6)          109.66 -0.001669    0.24    109.90   
    25. D(C   5,C   1,C   0,H   3)     82.85  0.000049    0.09     82.93   
    26. D(O   9,C   1,C   0,H   2)     25.60  0.002249   -4.17     21.44   
    27. D(C   5,C   1,C   0,H   2)   -156.76  0.002449   -0.85   -157.61   
    28. D(O   9,C   1,C   0,H   3)    -94.80 -0.000151   -3.23    -98.03   
    29. D(C   5,C   1,C   0,H   4)    -37.93 -0.002697    0.84    -37.09   
    30. D(H   6,C   5,C   1,O   9)    119.15 -0.001315    3.22    122.37   
    31. D(H   6,C   5,C   1,C   0)    -58.49 -0.001533   -0.11    -58.59   
    32. D(H   8,C   5,C   1,C   0)     62.57  0.002171   -1.33     61.24   
    33. D(H   7,C   5,C   1,O   9)     -0.47 -0.000045    2.67      2.19   
    34. D(H   7,C   5,C   1,C   0)   -178.11 -0.000263   -0.65   -178.76   
    ----------------------------------------------------------------------------

Geometry step timings:
Preparation and reading OPT file:      0.001 s ( 7.692 %)
Internal coordinates            :      0.000 s ( 0.000 %)
B/P matrices and projection     :      0.001 s ( 7.692 %)
Hessian update/contruction      :      0.002 s (15.385 %)
Making the step                 :      0.007 s (53.846 %)
Converting the step to Cartesian:      0.001 s ( 7.692 %)
Storing new data                :      0.000 s ( 0.000 %)
Checking convergence            :      0.000 s ( 0.000 %)
Final printing                  :      0.001 s ( 7.692 %)
Total time                      :      0.013 s

Time for energy+gradient        :      8.166 s
Time for complete geometry iter :      8.353 s

         *************************************************************
         *                GEOMETRY OPTIMIZATION CYCLE   2            *
         *************************************************************
---------------------------------
CARTESIAN COORDINATES (ANGSTROEM)
---------------------------------
  C     -2.090319   -1.633448   -0.008537
  C     -0.800560   -0.850167   -0.025469
  H     -2.896517   -1.023832   -0.437210
  H     -2.344852   -1.888246    1.031904
  H     -1.994109   -2.562986   -0.589620
  C      0.481124   -1.642429    0.021818
  H      0.505488   -2.262015    0.932080
  H      1.338899   -0.957744    0.026201
  H      0.548277   -2.299835   -0.859060
  O     -0.797561    0.359992   -0.092107

----------------------------
CARTESIAN COORDINATES (A.U.)
----------------------------
  NO LB      ZA    FRAG     MASS         X           Y           Z
   0 C     6.0000    0    12.011   -3.950131   -3.086770   -0.016132
   1 C     6.0000    0    12.011   -1.512839   -1.606583   -0.048130
   2 H     1.0000    0     1.008   -5.473624   -1.934762   -0.826208
   3 H     1.0000    0     1.008   -4.431127   -3.568267    1.950016
   4 H     1.0000    0     1.008   -3.768320   -4.843341   -1.114220
   5 C     6.0000    0    12.011    0.909194   -3.103741    0.041230
   6 H     1.0000    0     1.008    0.955234   -4.274589    1.761376
   7 H     1.0000    0     1.008    2.530152   -1.809874    0.049512
   8 H     1.0000    0     1.008    1.036093   -4.346058   -1.623388
   9 O     8.0000    0    15.999   -1.507172    0.680287   -0.174058

--------------------------------
INTERNAL COORDINATES (ANGSTROEM)
--------------------------------
 C      0   0   0     0.000000000000     0.00000000     0.00000000
 C      1   0   0     1.509071241038     0.00000000     0.00000000
 H      1   2   0     1.097883345104   109.57322861     0.00000000
 H      1   2   3     1.101011391602   109.16592125   240.54078554
 H      1   2   3     1.100433387932   110.96469951   120.52775783
 C      2   1   3     1.507524160070   116.96861901   202.39023476
 H      6   2   1     1.101389021538   109.89957979   301.40733047
 H      6   2   1     1.097537695830   109.67821528   181.23687686
 H      6   2   1     1.101198637938   109.90706681    61.24058271
 O      2   1   3     1.211996648506   121.39890940    21.43432050

---------------------------
INTERNAL COORDINATES (A.U.)
---------------------------
 C      0   0   0     0.000000000000     0.00000000     0.00000000
 C      1   0   0     2.851731362138     0.00000000     0.00000000
 H      1   2   0     2.074698849240   109.57322861     0.00000000
 H      1   2   3     2.080610000455   109.16592125   240.54078554
 H      1   2   3     2.079517731815   110.96469951   120.52775783
 C      2   1   3     2.848807802802   116.96861901   202.39023476
 H      6   2   1     2.081323617615   109.89957979   301.40733047
 H      6   2   1     2.074045666774   109.67821528   181.23687686
 H      6   2   1     2.080963844750   109.90706681    61.24058271
 O      2   1   3     2.290341740907   121.39890940    21.43432050



           ************************************************************
           *        Program running with 4 parallel MPI-processes     *
           *              working on a common directory               *
           ************************************************************
------------------------------------------------------------------------------
                   ___                                                        
                  /   \      - P O W E R E D   B Y -                         
                 /     \                                                     
                 |  |  |   _    _      __       _____    __    __             
                 |  |  |  | |  | |    /  \     |  _  \  |  |  /  |          
                  \  \/   | |  | |   /    \    | | | |  |  | /  /          
                 / \  \   | |__| |  /  /\  \   | |_| |  |  |/  /          
                |  |  |   |  __  | /  /__\  \  |    /   |      \           
                |  |  |   | |  | | |   __   |  |    \   |  |\   \          
                \     /   | |  | | |  |  |  |  | |\  \  |  | \   \       
                 \___/    |_|  |_| |__|  |__|  |_| \__\ |__|  \__/        
                                                                              
                      - O R C A' S   B I G   F R I E N D -                    
                                      &                                       
                       - I N T E G R A L  F E E D E R -                       
                                                                              
 v1 FN, 2020, v2 2021, v3 2022-2024                                           
------------------------------------------------------------------------------


----------------------
SHARK INTEGRAL PACKAGE
----------------------

Number of atoms                             ...     10
Number of basis functions                   ...     86
Number of shells                            ...     42
Maximum angular momentum                    ...      2
Integral batch strategy                     ... SHARK/LIBINT Hybrid
RI-J (if used) integral strategy            ... SPLIT-RIJ (Revised 2003 algorithm where possible)
Printlevel                                  ...      1
Contraction scheme used                     ... SEGMENTED contraction
Prescreening option                         ... SCHWARTZ
   Thresh                                   ... 2.500e-11
   Tcut                                     ... 2.500e-12
   Tpresel                                  ... 2.500e-12 
Coulomb Range Separation                    ... NOT USED
Exchange Range Separation                   ... NOT USED
Multipole approximations                    ... NOT USED
Finite Nucleus Model                        ... NOT USED
CABS basis                                  ... NOT available
Auxiliary Coulomb fitting basis             ... AVAILABLE
   # of basis functions in Aux-J            ...    262
   # of shells in Aux-J                     ...     90
   Maximum angular momentum in Aux-J        ...      4
Auxiliary J/K fitting basis                 ... NOT available
Auxiliary Correlation fitting basis         ... NOT available
Auxiliary 'external' fitting basis          ... NOT available

Checking pre-screening integrals            ... done (  0.0 sec) Dimension = 42
   => SHARK Basis and OBASIS are compatible. Storing Pre-screening
Shell pair information
Shell pair cut-off parameter TPreSel        ...   2.5e-12
Total number of shell pairs                 ...       903
Shell pairs after pre-screening             ...       898
Total number of primitive shell pairs       ...      3151
Primitive shell pairs kept                  ...      2595
          la=0 lb=0:    297 shell pairs
          la=1 lb=0:    334 shell pairs
          la=1 lb=1:    105 shell pairs
          la=2 lb=0:     96 shell pairs
          la=2 lb=1:     56 shell pairs
          la=2 lb=2:     10 shell pairs

Checking whether 4 symmetric matrices of dimension 86 fit in memory
:Max Core in MB      =   4096.00
 MB in use           =      4.23
 MB left             =   4091.77
 MB needed           =      0.11
 Data fit in memory  = YES
Calculating RI/J V-Matrix + Cholesky decomp.... done (  0.0 sec)
Calculating Nuclear repulsion               ... done (  0.0 sec) ENN=    119.490292045456 Eh

Diagonalization of the overlap matrix:
Smallest eigenvalue                        ... 3.347e-03
Time for diagonalization                   ...    0.001 sec
Threshold for overlap eigenvalues          ... 1.000e-07
Number of eigenvalues below threshold      ... 0
Time for construction of square roots      ...    0.002 sec
Total time needed                          ...    0.003 sec

-------------------
DFT GRID GENERATION
-------------------

General Integration Accuracy     IntAcc      ... 4.388
Radial Grid Type                 RadialGrid  ... OptM3 with GC (2021)
Angular Grid (max. ang.)         AngularGrid ... 4 (Lebedev-302)
Angular grid pruning method      GridPruning ... 4 (adaptive)
Weight generation scheme         WeightScheme... mBecke (2022)
Basis function cutoff            BFCut       ... 1.0000e-11
Integration weight cutoff        WCut        ... 1.0000e-14
Partially contracted basis set               ... off
Rotationally invariant grid construction     ... off
Angular grids for H and He will be reduced by one unit

Total number of grid points                  ...    43751
Total number of batches                      ...      688
Average number of points per batch           ...       63
Average number of grid points per atom       ...     4375

--------------------
COSX GRID GENERATION
--------------------

GRIDX 1
-------
General Integration Accuracy     IntAcc      ... 3.816
Radial Grid Type                 RadialGrid  ... OptM3 with GC (2021)
Angular Grid (max. ang.)         AngularGrid ... 1 (Lebedev-50)
Angular grid pruning method      GridPruning ... 4 (adaptive)
Weight generation scheme         WeightScheme... mBecke (2022)
Basis function cutoff            BFCut       ... 1.0000e-11
Integration weight cutoff        WCut        ... 1.0000e-14
Partially contracted basis set               ... on
Rotationally invariant grid construction     ... off
Angular grids for H and He will be reduced by one unit

Total number of grid points                  ...     5630
Total number of batches                      ...       49
Average number of points per batch           ...      114
Average number of grid points per atom       ...      563
UseSFitting                                  ... on

GRIDX 2
-------
General Integration Accuracy     IntAcc      ... 4.020
Radial Grid Type                 RadialGrid  ... OptM3 with GC (2021)
Angular Grid (max. ang.)         AngularGrid ... 2 (Lebedev-110)
Angular grid pruning method      GridPruning ... 4 (adaptive)
Weight generation scheme         WeightScheme... mBecke (2022)
Basis function cutoff            BFCut       ... 1.0000e-11
Integration weight cutoff        WCut        ... 1.0000e-14
Partially contracted basis set               ... on
Rotationally invariant grid construction     ... off
Angular grids for H and He will be reduced by one unit

Total number of grid points                  ...    12020
Total number of batches                      ...       98
Average number of points per batch           ...      122
Average number of grid points per atom       ...     1202
UseSFitting                                  ... on

GRIDX 3
-------
General Integration Accuracy     IntAcc      ... 4.338
Radial Grid Type                 RadialGrid  ... OptM3 with GC (2021)
Angular Grid (max. ang.)         AngularGrid ... 3 (Lebedev-194)
Angular grid pruning method      GridPruning ... 4 (adaptive)
Weight generation scheme         WeightScheme... mBecke (2022)
Basis function cutoff            BFCut       ... 1.0000e-11
Integration weight cutoff        WCut        ... 1.0000e-14
Partially contracted basis set               ... on
Rotationally invariant grid construction     ... off
Angular grids for H and He will be reduced by one unit

Total number of grid points                  ...    26440
Total number of batches                      ...      213
Average number of points per batch           ...      124
Average number of grid points per atom       ...     2644
UseSFitting                                  ... on
Grids setup in   0.4 sec
Initializing property integral containers    ... done (  0.1 sec)

SHARK setup successfully completed in   0.6 seconds

Maximum memory used throughout the entire STARTUP-calculation: 13.5 MB


           ************************************************************
           *        Program running with 4 parallel MPI-processes     *
           *              working on a common directory               *
           ************************************************************
Occupation numbers will be reassigned to an Aufbau configuration
             **** ENERGY FILE WAS UPDATED (.\Acetona.en.tmp) ****
Finished Guess after   0.2 sec
Maximum memory used throughout the entire GUESS-calculation: 6.6 MB


           ************************************************************
           *        Program running with 4 parallel MPI-processes     *
           *              working on a common directory               *
           ************************************************************
----------------------------------------D-I-I-S--------------------------------------------
Iteration    Energy (Eh)           Delta-E    RMSDP     MaxDP     DIISErr   Damp  Time(sec)
-------------------------------------------------------------------------------------------
               ***  Starting incremental Fock matrix formation  ***
    1    -192.7846255068727146     0.00e+00  5.20e-04  4.53e-03  1.81e-02  0.700   0.4
    2    -192.7849343721667879    -3.09e-04  4.69e-04  4.18e-03  1.43e-02  0.700   0.3
                               ***Turning on AO-DIIS***
    3    -192.7851698639865958    -2.35e-04  3.85e-04  3.51e-03  1.08e-02  0.700   0.3
    4    -192.7853415036026377    -1.72e-04  9.75e-04  9.15e-03  7.92e-03  0.000   0.3
                              *** Initializing SOSCF ***
---------------------------------------S-O-S-C-F--------------------------------------
Iteration    Energy (Eh)           Delta-E    RMSDP     MaxDP     MaxGrad    Time(sec)
--------------------------------------------------------------------------------------
    5    -192.7857794253169459    -4.38e-04  7.83e-05  7.80e-04  5.59e-04     0.3
               *** Restarting incremental Fock matrix formation ***
    6    -192.7857824472899324    -3.02e-06  5.54e-05  5.21e-04  1.90e-04     0.4
    7    -192.7857826653532243    -2.18e-07  3.52e-05  2.69e-04  1.47e-04     0.3
    8    -192.7857828907737030    -2.25e-07  2.65e-05  1.84e-04  7.83e-05     0.3
    9    -192.7857828936935789    -2.92e-09  1.21e-05  9.10e-05  4.41e-05     0.4
                 **** Energy Check signals convergence ****

               *****************************************************
               *                     SUCCESS                       *
               *           SCF CONVERGED AFTER   9 CYCLES          *
               *****************************************************

Recomputing exchange energy using gridx3       ... done (    0.454 sec)
Old exchange energy                            :     -6.459595919 Eh
New exchange energy                            :     -6.459617731 Eh
Exchange energy change after final integration :     -0.000021812 Eh
Total energy after final integration           :   -192.785804745 Eh
             **** ENERGY FILE WAS UPDATED (.\Acetona.en.tmp) ****

----------------
TOTAL SCF ENERGY
----------------

Total Energy       :       -192.78580474508760 Eh           -5245.96845 eV

Components:
Nuclear Repulsion  :        119.49029204545627 Eh            3251.49615 eV
Electronic Energy  :       -312.27607497847055 Eh           -8497.46400 eV
One Electron Energy:       -497.30571921697930 Eh          -13532.37659 eV
Two Electron Energy:        185.02964423850875 Eh            5034.91259 eV

Virial components:
Potential Energy   :       -383.75166039863768 Eh          -10442.41356 eV
Kinetic Energy     :        190.96585565355008 Eh            5196.44511 eV
Virial Ratio       :          2.00953023295871

DFT components:
N(Alpha)           :       15.999993305271 electrons
N(Beta)            :       15.999993305271 electrons
N(Total)           :       31.999986610542 electrons
E(X)               :      -19.316193085816 Eh       
E(C)               :       -1.048308844055 Eh       
E(XC)              :      -20.364501929870 Eh       

---------------
SCF CONVERGENCE
---------------

  Last Energy change         ...    2.9199e-09  Tolerance :   1.0000e-08
  Last MAX-Density change    ...    9.0976e-05  Tolerance :   1.0000e-07
  Last RMS-Density change    ...    1.2129e-05  Tolerance :   5.0000e-09
  Last DIIS Error            ...    5.5941e-04  Tolerance :   5.0000e-07
  Last Orbital Gradient      ...    4.4102e-05  Tolerance :   1.0000e-05
  Last Orbital Rotation      ...    4.0071e-05  Tolerance :   1.0000e-05


Total SCF time: 0 days 0 hours 0 min 3 sec 
Finished LeanSCF after   4.0 sec

Maximum memory used throughout the entire LEANSCF-calculation: 7.8 MB


           ************************************************************
           *        Program running with 4 parallel MPI-processes     *
           *              working on a common directory               *
           ************************************************************

[...]
     22      -0.012005   0.247038   0.303015   0.045477  -0.368481   0.276321
     23      -0.234368  -0.037577  -0.052355   0.288001   0.070321  -0.068518
     24      -0.366035   0.431585   0.346357   0.298122   0.139445  -0.324004
     25       0.220360  -0.069205  -0.021020  -0.253042  -0.143385   0.148635
     26      -0.166539  -0.016268  -0.056499   0.162297   0.189812  -0.237286
     27      -0.000403  -0.031818   0.000669   0.001016   0.046112  -0.000021
     28      -0.006847   0.000018   0.104455  -0.006788  -0.000025   0.007780
     29       0.000954  -0.001263  -0.015256  -0.045463   0.001905  -0.001146
                 18         19         20         21         22         23    
      0       0.144375  -0.022788   0.024874  -0.024615  -0.004772  -0.011193
      1       0.058849   0.025229  -0.011234   0.015590   0.001573  -0.044683
      2      -0.000714  -0.003633   0.030582   0.031715   0.032609   0.006311
      3      -0.165493  -0.025570  -0.000670  -0.000564   0.005257   0.004656
      4       0.000332   0.000310   0.007768  -0.006862   0.004819   0.740177
      5      -0.004840   0.001511  -0.001019   0.000880   0.033437  -0.107481
      6      -0.117780   0.174869  -0.126770   0.127772   0.014640   0.144077
      7      -0.266871   0.260611  -0.241185   0.138816  -0.046903   0.187594
      8       0.001008  -0.019105  -0.320247  -0.409901  -0.501323  -0.017918
      9      -0.372180   0.102074   0.104334   0.327474   0.341506  -0.070882
     10      -0.132777  -0.375536   0.192349  -0.330348  -0.101407  -0.122645
     11      -0.150125  -0.225645   0.144896  -0.150583  -0.011473  -0.051975
     12      -0.403375   0.089268  -0.290183  -0.152000  -0.324120  -0.062440
     13      -0.090677  -0.322885   0.311503  -0.112392   0.099625  -0.103460
     14       0.150155   0.302148  -0.254442   0.138325  -0.055606   0.071106
     15       0.144409  -0.022623  -0.024726   0.025503  -0.005078   0.010658
     16      -0.058734  -0.024608  -0.019967   0.005168   0.008206  -0.044745
     17       0.017271   0.004301  -0.025894  -0.034834   0.031562   0.006695
     18      -0.407763   0.089551   0.294640   0.147916  -0.323561   0.059529
     19       0.135079   0.389678   0.375507  -0.149491  -0.107658  -0.119971
     20       0.118412   0.192239   0.155952  -0.099255  -0.024203  -0.037787
     21      -0.116313   0.169545   0.127787  -0.124832   0.013705  -0.141746
     22       0.258363  -0.254458  -0.142098   0.254947  -0.102153   0.186489
     23      -0.084464   0.052091   0.378156   0.351175  -0.492441  -0.037411
     24      -0.370828   0.106708  -0.103241  -0.333007   0.343864   0.070395
     25       0.090863   0.289794   0.147854  -0.267980   0.089159  -0.103193
     26      -0.185181  -0.322255  -0.200494   0.240040  -0.040202   0.085464
     27       0.020108   0.007168  -0.000022   0.000177  -0.000712  -0.003027
     28       0.000044   0.000107  -0.022978   0.018955  -0.000291  -0.483803
     29       0.000666  -0.000342   0.003305  -0.002718  -0.002382   0.070202
                 24         25         26         27         28         29    
      0       0.024374   0.024818  -0.002581  -0.002656   0.028189   0.048197
      1       0.027476   0.027280   0.007218   0.007474  -0.038021  -0.064856
      2      -0.001526  -0.001460   0.063352   0.065915   0.005708   0.009501
      3      -0.003170  -0.000007  -0.000022   0.000165   0.000245   0.000041
      4       0.000011  -0.000795   0.000122   0.000082   0.000785  -0.003052
      5      -0.000083   0.000110  -0.000031   0.000677  -0.000163   0.000431
      6      -0.240213  -0.247350   0.012095   0.012282  -0.354004  -0.599808
      7       0.199157   0.202449  -0.008614  -0.009022   0.282713   0.478939
      8      -0.026821  -0.027456   0.011573   0.010462  -0.038711  -0.065586
      9      -0.024688  -0.023596   0.029643   0.030700   0.011519   0.021422
     10      -0.219474  -0.218513   0.254353   0.264621   0.077969   0.135832
     11       0.382733   0.381228  -0.416131  -0.432470  -0.139825  -0.243361
     12      -0.008082  -0.006876  -0.011509  -0.012048   0.005494   0.010371
     13      -0.299723  -0.298955  -0.332898  -0.346236   0.094248   0.166991
     14      -0.338244  -0.337132  -0.355388  -0.369854   0.110262   0.194913
     15       0.024104  -0.024455   0.003133  -0.003103   0.048873  -0.028719
     16      -0.026971   0.026655  -0.011733   0.011190   0.064410  -0.037749
     17       0.007055  -0.007058  -0.065232   0.062765  -0.008824   0.005172
     18      -0.006164   0.004949   0.009650  -0.009384   0.008783  -0.005683
     19       0.190378  -0.189270  -0.222769   0.214329  -0.098135   0.059398
     20      -0.415201   0.412434   0.452888  -0.436142   0.225057  -0.135868
     21      -0.243237   0.249461  -0.020258   0.020573  -0.607373   0.353717
     22      -0.195760   0.198242  -0.017811   0.017808  -0.471038   0.274277
     23       0.032592  -0.032803  -0.007908   0.005970   0.077172  -0.044923
     24      -0.020402   0.019228  -0.025937   0.024767   0.018235  -0.011756
     25       0.319278  -0.316479   0.380549  -0.365609  -0.204244   0.122959
     26       0.300080  -0.297578   0.337743  -0.324126  -0.195942   0.117817
     27       0.000183  -0.000004  -0.000000  -0.000015  -0.000241  -0.000053
     28      -0.000001  -0.000672  -0.000030   0.000046  -0.000334   0.001297
     29      -0.000001   0.000095  -0.000001   0.000301   0.000066  -0.000186


-----------
IR SPECTRUM
-----------

 Mode   freq       eps      Int      T**2         TX        TY        TZ
       cm**-1   L/(mol*cm) km/mol    a.u.
----------------------------------------------------------------------------
  6:     30.31   0.000001    0.00  0.000010  ( 0.000257  0.003139 -0.000471)
  7:    133.99   0.000052    0.26  0.000120  (-0.001891 -0.001802 -0.010651)
  8:    381.80   0.000247    1.25  0.000202  (-0.000097 -0.014068  0.002032)
  9:    489.91   0.000022    0.11  0.000014  (-0.001178 -0.000493 -0.003496)
 10:    541.70   0.003002   15.17  0.001729  (-0.041555  0.000033 -0.001584)
 11:    811.80   0.000222    1.12  0.000085  (-0.000036 -0.009128  0.001359)
 12:    860.01   0.000001    0.01  0.000000  (-0.000266  0.000607 -0.000158)
 13:    883.37   0.000689    3.48  0.000244  (-0.015535 -0.000118 -0.001493)
 14:   1068.62   0.000018    0.09  0.000005  ( 0.000029  0.002279 -0.000268)
 15:   1104.60   0.001162    5.87  0.000328  ( 0.000311  0.002509  0.017940)
 16:   1237.81   0.009324   47.12  0.002351  (-0.048426 -0.000013 -0.002371)
 17:   1356.36   0.004163   21.04  0.000958  ( 0.000482  0.030606 -0.004576)
 18:   1380.92   0.021256  107.42  0.004804  (-0.069126 -0.000242 -0.005009)
 19:   1423.66   0.000159    0.80  0.000035  ( 0.005861 -0.000358 -0.000565)
 20:   1434.46   0.002924   14.78  0.000636  ( 0.000018  0.024954 -0.003667)
 21:   1436.59   0.001840    9.30  0.000400  (-0.000346 -0.019777  0.002901)
 22:   1457.69   0.004865   24.59  0.001042  ( 0.003352 -0.004711 -0.031750)
 23:   1872.89   0.036246  183.17  0.006039  ( 0.000480  0.076900 -0.011201)
 24:   3055.90   0.000121    0.61  0.000012  ( 0.003506  0.000022  0.000167)
 25:   3061.13   0.000529    2.67  0.000054  ( 0.000061  0.007258 -0.001120)
 26:   3143.49   0.000014    0.07  0.000001  ( 0.000082 -0.001192 -0.000045)
 27:   3148.97   0.001516    7.66  0.000150  (-0.001065  0.001859  0.012069)
 28:   3197.54   0.000843    4.26  0.000082  ( 0.008916  0.001640  0.000232)
 29:   3198.03   0.000454    2.29  0.000044  ( 0.002280 -0.006166  0.001018)

* The epsilon (eps) is given for a Dirac delta lineshape.
** The dipole moment derivative (T) already includes vibrational overlap.

The first frequency considered to be a vibration is 6
The total number of vibrations considered is 24


--------------------------
THERMOCHEMISTRY AT 298.15K
--------------------------

Temperature         ...   298.15 K
Pressure            ...     1.00 atm
Total Mass          ...    58.08 AMU
Quasi RRHO          ...     True
Cut-Off Frequency   ...     1.00 cm^-1

Throughout the following assumptions are being made:
  (1) The electronic state is orbitally nondegenerate
  (2) There are no thermally accessible electronically excited states
  (3) Hindered rotations indicated by low frequency modes are not
      treated as such but are treated as vibrations and this may
      cause some error
  (4) All equations used are the standard statistical mechanics
      equations for an ideal gas
  (5) All vibrations are strictly harmonic

freq.      30.31  E(vib)   ...       0.55 
freq.     133.99  E(vib)   ...       0.42 
freq.     381.80  E(vib)   ...       0.21 
freq.     489.91  E(vib)   ...       0.15 
freq.     541.70  E(vib)   ...       0.12 
freq.     811.80  E(vib)   ...       0.05 
freq.     860.01  E(vib)   ...       0.04 
freq.     883.37  E(vib)   ...       0.04 
freq.    1068.62  E(vib)   ...       0.02 
freq.    1104.60  E(vib)   ...       0.02 
freq.    1237.81  E(vib)   ...       0.01 
freq.    1356.36  E(vib)   ...       0.01 
freq.    1380.92  E(vib)   ...       0.01 
freq.    1423.66  E(vib)   ...       0.00 
freq.    1434.46  E(vib)   ...       0.00 
freq.    1436.59  E(vib)   ...       0.00 
freq.    1457.69  E(vib)   ...       0.00 
freq.    1872.89  E(vib)   ...       0.00 
freq.    3055.90  E(vib)   ...       0.00 
freq.    3061.13  E(vib)   ...       0.00 
freq.    3143.49  E(vib)   ...       0.00 
freq.    3148.97  E(vib)   ...       0.00 
freq.    3197.54  E(vib)   ...       0.00 
freq.    3198.03  E(vib)   ...       0.00 

------------
INNER ENERGY
------------

The inner energy is: U= E(el) + E(ZPE) + E(vib) + E(rot) + E(trans)
    E(el)   - is the total energy from the electronic structure calculation
              = E(kin-el) + E(nuc-el) + E(el-el) + E(nuc-nuc)
    E(ZPE)  - the the zero temperature vibrational energy from the frequency calculation
    E(vib)  - the the finite temperature correction to E(ZPE) due to population
              of excited vibrational states
    E(rot)  - is the rotational thermal energy
    E(trans)- is the translational thermal energy

Summary of contributions to the inner energy U:
Electronic energy                ...   -192.78642123 Eh
Zero point energy                ...      0.08363510 Eh      52.48 kcal/mol
Thermal vibrational correction   ...      0.00260858 Eh       1.64 kcal/mol
Thermal rotational correction    ...      0.00141627 Eh       0.89 kcal/mol
Thermal translational correction ...      0.00141627 Eh       0.89 kcal/mol
-----------------------------------------------------------------------
Total thermal energy                   -192.69734501 Eh


Summary of corrections to the electronic energy:
(perhaps to be used in another calculation)
Total thermal correction                  0.00544112 Eh       3.41 kcal/mol
Non-thermal (ZPE) correction              0.08363510 Eh      52.48 kcal/mol
-----------------------------------------------------------------------
Total correction                          0.08907622 Eh      55.90 kcal/mol


--------
ENTHALPY
--------

The enthalpy is H = U + kB*T
                kB is Boltzmann's constant
Total thermal energy              ...   -192.69734501 Eh 
Thermal Enthalpy correction       ...      0.00094421 Eh       0.59 kcal/mol
-----------------------------------------------------------------------
Total Enthalpy                    ...   -192.69640080 Eh


Note: Only C1 symmetry has been detected, increase convergence thresholds 
      if your molecule has a higher symmetry. Symmetry factor of 1.0 is   
      used for the rotational entropy correction. 
 

Note: Rotational entropy computed according to Herzberg 
Infrared and Raman Spectra, Chapter V,1, Van Nostrand Reinhold, 1945 
Point Group:  C1, Symmetry Number:   1  
Rotational constants in cm-1:     0.339874     0.284803     0.164491 

Vibrational entropy computed according to the QRRHO of S. Grimme
Chem.Eur.J. 2012 18 9955 using a reference frequency of 100.0 cm-1


-------
ENTROPY
-------

The entropy contributions are T*S = T*(S(el)+S(vib)+S(rot)+S(trans))
     S(el)   - electronic entropy
     S(vib)  - vibrational entropy
     S(rot)  - rotational entropy
     S(trans)- translational entropy
The entropies will be listed as multiplied by the temperature to get
units of energy

Electronic entropy                ...      0.00000000 Eh      0.00 kcal/mol
Vibrational entropy               ...      0.00471539 Eh      2.96 kcal/mol
Rotational entropy                ...      0.01146528 Eh      7.19 kcal/mol
Translational entropy             ...      0.01810171 Eh     11.36 kcal/mol
-----------------------------------------------------------------------
Final entropy term                ...      0.03428238 Eh     21.51 kcal/mol

In case the symmetry of your molecule has not been determined correctly
or in case you have a reason to use a different symmetry number we print 
out the resulting rotational entropy values for sn=1,12:

 non-linear molecules -----------------------------------
|  sn= 1 | S(rot)=       0.01146528 Eh      7.19 kcal/mol|
|  sn= 2 | S(rot)=       0.01081082 Eh      6.78 kcal/mol|
|  sn= 3 | S(rot)=       0.01042799 Eh      6.54 kcal/mol|
|  sn= 4 | S(rot)=       0.01015637 Eh      6.37 kcal/mol|
|  sn= 5 | S(rot)=       0.00994568 Eh      6.24 kcal/mol|
|  sn= 6 | S(rot)=       0.00977354 Eh      6.13 kcal/mol|
|  sn= 7 | S(rot)=       0.00962799 Eh      6.04 kcal/mol|
|  sn= 8 | S(rot)=       0.00950191 Eh      5.96 kcal/mol|
|  sn= 9 | S(rot)=       0.00939070 Eh      5.89 kcal/mol|
|  sn=10 | S(rot)=       0.00929122 Eh      5.83 kcal/mol|
|  sn=11 | S(rot)=       0.00920123 Eh      5.77 kcal/mol|
|  sn=12 | S(rot)=       0.00911908 Eh      5.72 kcal/mol|
 linear molecules ---------------------------------------
|  Dinfh | S(rot)=       0.00702996 Eh      4.41 kcal/mol|
|  Cinfv | S(rot)=       0.00768441 Eh      4.82 kcal/mol|
 --------------------------------------------------------


-------------------
GIBBS FREE ENERGY
-------------------

The Gibbs free energy is G = H - T*S

Total enthalpy                    ...   -192.69640080 Eh 
Total entropy correction          ...     -0.03428238 Eh    -21.51 kcal/mol
-----------------------------------------------------------------------
Final Gibbs free energy         ...   -192.73068318 Eh

For completeness - the Gibbs free energy minus the electronic energy
G-E(el)                           ...      0.05573805 Eh     34.98 kcal/mol


Maximum memory used throughout the entire PROP-calculation: 19.8 MB

--------------------------------
SUGGESTED CITATIONS FOR THIS RUN
--------------------------------

Below you find a list of papers that are relevant to this ORCA run
We neither can nor want to force you to cite these papers, but we appreciate if you do
You receive ORCA, which is the product of decades of hard work by many enthusiastic individuals, for free
The only thing we kindly ask in return is that you cite our papers,
We deeply appreciate it, if you show your appreciation for ORCA by not just citing the generic ORCA reference.

Please note that relegating all ORCA citations to the supporting information does *not* help us.
SI sections are not indexed - citations you put there will not count into any citation statistics
But we need these citations in order to attract the funding resources that allow us to do what we are doing

Therefore, if you are a happy ORCA user, please consider citing a few of the papers listed below in the main body of your paper

In addition to the list printed below, the program has created the file .\Acetona.bibtex that contains the list in bibtex format
You can import this file easily into all common literature databanks and citation aid programs


List of essential papers. We consider these as the minimum necessary citations

  1. Neese, F.
     Software update: the ORCA program system, version 6.0
     WIRES Comput. Molec. Sci. 2025 15(1), e70019
     doi.org/10.1002/wcms.7019

List of papers to cite with high priority. The work reported in these papers was absolutely
necessary for this run to complete.
Our perspective: the developers of density functionals and basis sets usually get cited in chemistry papers
Good! But without the algorithms to do something with them, the functionals or basis sets would not do anything.
Hence, in our opinion, the algorithm design and method developments papers are equally worthy of getting cited

  1. Neese, F.
     An improvement of the resolution of the identity approximation for the formation of the Coulomb matrix
     J. Comp. Chem. 2003 24(14), 1740-1747
     doi.org/10.1002/jcc.10318
  2. Neese, F.; Wennmohs, F.; Hansen, A.; Becker, U.
     Efficient, approximate and parallel Hartree-Fock and hybrid DFT calculations. A 'chain-of-spheres' algorithm for the Hartree-Fock exchange
     Chem. Phys. 2009 356(1-3), 98-109
     doi.org/10.1016/j.chemphys.2008.10.036
  3. Bykov, D.; Petrenko, T.; Izsak, R.; Kossmann, S.; Becker, U.; Valeev, E.; Neese, F.
     Efficient implementation of the analytic second derivatives of Hartree-Fock and hybrid DFT energies: a detailed analysis of different approximations
     Molec. Phys. 2015 113 , 1961-1977
     doi.org/10.1080/00268976.2015.1025114
  4. Helmich-Paris, B.; de Souza, B.; Neese, F.; Izs??k, R.
     An improved chain of spheres for exchange algorithm
     J. Chem. Phys. 2021 155(10), 104109
     doi.org/10.1063/5.0058766
  5. Neese, F.
     The SHARK Integral Generation and Digestion System
     J. Comp. Chem. 2022 44(3), 381
     doi.org/10.1002/jcc.26942

List of suggested additional citations. These are papers that are important in the 'surrounding' of 
of this run, or papers that preceded the highly important papers. If you like your results we are grateful for a citation.

  1. Izsak, R.; Neese, F.
     An overlap fitted chain of spheres exchange method
     J. Chem. Phys. 2011 135 , 144105
     doi.org/10.1063/1.3646921
  2. Izsak, R.; Hansen, A.; Neese, F.
     The resolution of identity and chain of spheres approximations for the LPNO-CCSD singles Fock term
     Molec. Phys. 2012 110 , 2413-2417
     doi.org/10.1080/00268976.2012.687466
  3. Neese, F.
     The ORCA program system
     WIRES Comput. Molec. Sci. 2012 2(1), 73-78
     doi.org/10.1002/wcms.81
  4. Izsak, R.; Neese, F.; Klopper, W.
     Robust fitting techniques in the chain of spheres approximation to the Fock exchange: The role of the complementary space
     J. Chem. Phys. 2013 139 , 
     doi.org/10.1063/1.4819264
  5. Neese, F.
     Software update: the ORCA program system, version 4.0
     WIRES Comput. Molec. Sci. 2018 8(1), 1-6
     doi.org/10.1002/wcms.1327
  6. Neese, F.; Wennmohs, F.; Becker, U.; Riplinger, C.
     The ORCA quantum chemistry program package
     J. Chem. Phys. 2020 152(22), 224108
     doi.org/10.1063/5.0004608
  7. Neese, F.
     Software update: The ORCA program system???Version 5.0
     WIRES Comput. Molec. Sci. 2022 12(1), e1606
     doi.org/10.1002/wcms.1606

List of optional additional citations

  1. Neese, F.
     Approximate second-order SCF convergence for spin unrestricted wavefunctions
     Chem. Phys. Lett. 2000 325(1-3), 93-98
     doi.org/10.1016/s0009-2614(00)00662-x

Timings for individual modules:

Sum of individual times          ...      221.692 sec (=   3.695 min)
Startup calculation              ...       15.016 sec (=   0.250 min)   6.8 %
SCF iterations                   ...       89.657 sec (=   1.494 min)  40.4 %
Property integrals               ...       11.149 sec (=   0.186 min)   5.0 %
SCF Response                     ...       18.820 sec (=   0.314 min)   8.5 %
Property calculations            ...       33.798 sec (=   0.563 min)  15.2 %
SCF Gradient evaluation          ...       52.975 sec (=   0.883 min)  23.9 %
Geometry relaxation              ...        0.277 sec (=   0.005 min)   0.1 %
                             ****ORCA TERMINATED NORMALLY****
TOTAL RUN TIME: 0 days 0 hours 3 minutes 45 seconds 490 msec
