10
* (null), Energy   -1000.0000000
C    -1.287465   -0.687675    0.042671    0.030008   -0.013240   -0.191311
C     0.000586    0.100291   -0.014923   -0.002765   -0.010825    0.001406
H    -2.142632   -0.006880   -0.051035    0.045778    0.095129    0.457961
H    -1.358065   -1.249292    0.987824    0.765859    0.512221    0.190819
H    -1.316048   -1.430091   -0.771204   -0.776521   -0.437882    0.244293
C     1.278866   -0.686888    0.157259   -0.029027    0.035243    0.188376
H     1.302492   -1.160237    1.152237    0.797099   -0.502031   -0.103324
H     2.142472   -0.019053    0.048594   -0.066088   -0.024010   -0.468736
H     1.339202   -1.500367   -0.583141   -0.732070    0.440721   -0.333078
O     0.008068    1.294714   -0.188240   -0.000806   -0.013693    0.001908
10
* Frequency(12)  860.0127
C    -1.284055   -0.689180    0.020929    0.030008   -0.013240   -0.191311
C     0.000272    0.099061   -0.014763   -0.002765   -0.010825    0.001406
H    -2.137429    0.003931    0.001009    0.045778    0.095129    0.457961
H    -1.271029   -1.191080    1.009510    0.765859    0.512221    0.190819
H    -1.404295   -1.479854   -0.743442   -0.776521   -0.437882    0.244293
C     1.275567   -0.682883    0.178667   -0.029027    0.035243    0.188376
H     1.393078   -1.217291    1.140495    0.797099   -0.502031   -0.103324
H     2.134961   -0.021782   -0.004676   -0.066088   -0.024010   -0.468736
H     1.256006   -1.450281   -0.620993   -0.732070    0.440721   -0.333078
O     0.007977    1.293158   -0.188024   -0.000806   -0.013693    0.001908
10
* Frequency(12)  860.0127
C    -1.281014   -0.690522    0.001544    0.030008   -0.013240   -0.191311
C    -0.000008    0.097964   -0.014621   -0.002765   -0.010825    0.001406
H    -2.132791    0.013571    0.047414    0.045778    0.095129    0.457961
H    -1.193425   -1.139177    1.028845    0.765859    0.512221    0.190819
H    -1.482980   -1.524225   -0.718688   -0.776521   -0.437882    0.244293
C     1.272626   -0.679312    0.197755   -0.029027    0.035243    0.188376
H     1.473848   -1.268161    1.130025    0.797099   -0.502031   -0.103324
H     2.128264   -0.024215   -0.052173   -0.066088   -0.024010   -0.468736
H     1.181825   -1.405623   -0.654744   -0.732070    0.440721   -0.333078
O     0.007895    1.291771   -0.187830   -0.000806   -0.013693    0.001908
10
* Frequency(12)  860.0127
C    -1.278672   -0.691555   -0.013385    0.030008   -0.013240   -0.191311
C    -0.000224    0.097119   -0.014511   -0.002765   -0.010825    0.001406
H    -2.129218    0.020994    0.083151    0.045778    0.095129    0.457961
H    -1.133662   -1.099207    1.043736    0.765859    0.512221    0.190819
H    -1.543575   -1.558394   -0.699624   -0.776521   -0.437882    0.244293
C     1.270361   -0.676562    0.212455   -0.029027    0.035243    0.188376
H     1.536048   -1.307337    1.121962    0.797099   -0.502031   -0.103324
H     2.123107   -0.026088   -0.088750   -0.066088   -0.024010   -0.468736
H     1.124699   -1.371232   -0.680735   -0.732070    0.440721   -0.333078
O     0.007832    1.290702   -0.187681   -0.000806   -0.013693    0.001908
10
* Frequency(12)  860.0127
C    -1.277284   -0.692167   -0.022239    0.030008   -0.013240   -0.191311
C    -0.000352    0.096618   -0.014446   -0.002765   -0.010825    0.001406
H    -2.127100    0.025397    0.104346    0.045778    0.095129    0.457961
H    -1.098217   -1.075500    1.052567    0.765859    0.512221    0.190819
H    -1.579514   -1.578660   -0.688318   -0.776521   -0.437882    0.244293
C     1.269017   -0.674931    0.221173   -0.029027    0.035243    0.188376
H     1.572939   -1.330572    1.117180    0.797099   -0.502031   -0.103324
H     2.120049   -0.027199   -0.110444   -0.066088   -0.024010   -0.468736
H     1.090818   -1.350835   -0.696151   -0.732070    0.440721   -0.333078
O     0.007795    1.290068   -0.187593   -0.000806   -0.013693    0.001908
10
* Frequency(12)  860.0127
C    -1.276998   -0.692293   -0.024059    0.030008   -0.013240   -0.191311
C    -0.000378    0.096515   -0.014432   -0.002765   -0.010825    0.001406
H    -2.126664    0.026302    0.108703    0.045778    0.095129    0.457961
H    -1.090930   -1.070627    1.054383    0.765859    0.512221    0.190819
H    -1.586902   -1.582826   -0.685994   -0.776521   -0.437882    0.244293
C     1.268741   -0.674595    0.222965   -0.029027    0.035243    0.188376
H     1.580523   -1.335348    1.116197    0.797099   -0.502031   -0.103324
H     2.119420   -0.027428   -0.114904   -0.066088   -0.024010   -0.468736
H     1.083852   -1.346641   -0.699320   -0.732070    0.440721   -0.333078
O     0.007787    1.289938   -0.187575   -0.000806   -0.013693    0.001908
10
* Frequency(12)  860.0127
C    -1.277847   -0.691919   -0.018648    0.030008   -0.013240   -0.191311
C    -0.000300    0.096821   -0.014472   -0.002765   -0.010825    0.001406
H    -2.127959    0.023611    0.095750    0.045778    0.095129    0.457961
H    -1.112591   -1.085114    1.048986    0.765859    0.512221    0.190819
H    -1.564939   -1.570441   -0.692903   -0.776521   -0.437882    0.244293
C     1.269562   -0.675592    0.217637   -0.029027    0.035243    0.188376
H     1.557978   -1.321149    1.119120    0.797099   -0.502031   -0.103324
H     2.121289   -0.026749   -0.101646   -0.066088   -0.024010   -0.468736
H     1.104558   -1.359107   -0.689899   -0.732070    0.440721   -0.333078
O     0.007810    1.290325   -0.187629   -0.000806   -0.013693    0.001908
10
* Frequency(12)  860.0127
C    -1.279738   -0.691085   -0.006592    0.030008   -0.013240   -0.191311
C    -0.000126    0.097503   -0.014561   -0.002765   -0.010825    0.001406
H    -2.130844    0.017616    0.066891    0.045778    0.095129    0.457961
H    -1.160854   -1.117393    1.036961    0.765859    0.512221    0.190819
H    -1.516005   -1.542847   -0.708298   -0.776521   -0.437882    0.244293
C     1.271391   -0.677813    0.205766   -0.029027    0.035243    0.188376
H     1.507747   -1.289512    1.125631    0.797099   -0.502031   -0.103324
H     2.125454   -0.025236   -0.072108   -0.066088   -0.024010   -0.468736
H     1.150691   -1.386880   -0.668910   -0.732070    0.440721   -0.333078
O     0.007861    1.291188   -0.187749   -0.000806   -0.013693    0.001908
10
* Frequency(12)  860.0127
C    -1.282466   -0.689881    0.010802    0.030008   -0.013240   -0.191311
C     0.000125    0.098488   -0.014689   -0.002765   -0.010825    0.001406
H    -2.135006    0.008967    0.025252    0.045778    0.095129    0.457961
H    -1.230487   -1.163965    1.019611    0.765859    0.512221    0.190819
H    -1.445402   -1.503034   -0.730510   -0.776521   -0.437882    0.244293
C     1.274030   -0.681017    0.188639   -0.029027    0.035243    0.188376
H     1.435274   -1.243866    1.135025    0.797099   -0.502031   -0.103324
H     2.131463   -0.023053   -0.029489   -0.066088   -0.024010   -0.468736
H     1.217252   -1.426951   -0.638626   -0.732070    0.440721   -0.333078
O     0.007934    1.292433   -0.187923   -0.000806   -0.013693    0.001908
10
* Frequency(12)  860.0127
C    -1.285736   -0.688438    0.031650    0.030008   -0.013240   -0.191311
C     0.000427    0.099667   -0.014842   -0.002765   -0.010825    0.001406
H    -2.139995   -0.001399   -0.024653    0.045778    0.095129    0.457961
H    -1.313945   -1.219784    0.998817    0.765859    0.512221    0.190819
H    -1.360782   -1.455317   -0.757131   -0.776521   -0.437882    0.244293
C     1.277194   -0.684858    0.168111   -0.029027    0.035243    0.188376
H     1.348411   -1.189158    1.146285    0.797099   -0.502031   -0.103324
H     2.138664   -0.020436    0.021591   -0.066088   -0.024010   -0.468736
H     1.297029   -1.474978   -0.602329   -0.732070    0.440721   -0.333078
O     0.008022    1.293926   -0.188130   -0.000806   -0.013693    0.001908
10
* Frequency(12)  860.0127
C    -1.289194   -0.686913    0.053692    0.030008   -0.013240   -0.191311
C     0.000745    0.100914   -0.015004   -0.002765   -0.010825    0.001406
H    -2.145269   -0.012360   -0.077418    0.045778    0.095129    0.457961
H    -1.402185   -1.278800    0.976831    0.765859    0.512221    0.190819
H    -1.271314   -1.404866   -0.785277   -0.776521   -0.437882    0.244293
C     1.280538   -0.688918    0.146407   -0.029027    0.035243    0.188376
H     1.256572   -1.131316    1.158189    0.797099   -0.502031   -0.103324
H     2.146279   -0.017670    0.075597   -0.066088   -0.024010   -0.468736
H     1.381375   -1.525756   -0.563953   -0.732070    0.440721   -0.333078
O     0.008115    1.295503   -0.188350   -0.000806   -0.013693    0.001908
10
* Frequency(12)  860.0127
C    -1.292464   -0.685470    0.074540    0.030008   -0.013240   -0.191311
C     0.001047    0.102094   -0.015157   -0.002765   -0.010825    0.001406
H    -2.150258   -0.022726   -0.127323    0.045778    0.095129    0.457961
H    -1.485643   -1.334618    0.956037    0.765859    0.512221    0.190819
H    -1.186694   -1.357148   -0.811899   -0.776521   -0.437882    0.244293
C     1.283701   -0.692759    0.125879   -0.029027    0.035243    0.188376
H     1.169710   -1.076608    1.169449    0.797099   -0.502031   -0.103324
H     2.153481   -0.015053    0.126676   -0.066088   -0.024010   -0.468736
H     1.461151   -1.573783   -0.527656   -0.732070    0.440721   -0.333078
O     0.008203    1.296996   -0.188558   -0.000806   -0.013693    0.001908
10
* Frequency(12)  860.0127
C    -1.295192   -0.684266    0.091934    0.030008   -0.013240   -0.191311
C     0.001298    0.103078   -0.015285   -0.002765   -0.010825    0.001406
H    -2.154420   -0.031376   -0.168962    0.045778    0.095129    0.457961
H    -1.555276   -1.381190    0.938687    0.765859    0.512221    0.190819
H    -1.116091   -1.317335   -0.834110   -0.776521   -0.437882    0.244293
C     1.286340   -0.695963    0.108752   -0.029027    0.035243    0.188376
H     1.097236   -1.030963    1.178843    0.797099   -0.502031   -0.103324
H     2.159489   -0.012870    0.169295   -0.066088   -0.024010   -0.468736
H     1.527712   -1.613854   -0.497372   -0.732070    0.440721   -0.333078
O     0.008276    1.298241   -0.188731   -0.000806   -0.013693    0.001908
10
* Frequency(12)  860.0127
C    -1.297083   -0.683432    0.103990    0.030008   -0.013240   -0.191311
C     0.001472    0.103760   -0.015374   -0.002765   -0.010825    0.001406
H    -2.157305   -0.037370   -0.197821    0.045778    0.095129    0.457961
H    -1.603539   -1.413469    0.926663    0.765859    0.512221    0.190819
H    -1.067157   -1.289741   -0.849505   -0.776521   -0.437882    0.244293
C     1.288170   -0.698184    0.096881   -0.029027    0.035243    0.188376
H     1.047005   -0.999326    1.185355    0.797099   -0.502031   -0.103324
H     2.163654   -0.011357    0.198833   -0.066088   -0.024010   -0.468736
H     1.573845   -1.641627   -0.476383   -0.732070    0.440721   -0.333078
O     0.008327    1.299103   -0.188852   -0.000806   -0.013693    0.001908
10
* Frequency(12)  860.0127
C    -1.297932   -0.683057    0.109401    0.030008   -0.013240   -0.191311
C     0.001550    0.104067   -0.015413   -0.002765   -0.010825    0.001406
H    -2.158599   -0.040061   -0.210774    0.045778    0.095129    0.457961
H    -1.625200   -1.427957    0.921265    0.765859    0.512221    0.190819
H    -1.045194   -1.277356   -0.856415   -0.776521   -0.437882    0.244293
C     1.288991   -0.699181    0.091553   -0.029027    0.035243    0.188376
H     1.024460   -0.985126    1.188277    0.797099   -0.502031   -0.103324
H     2.165523   -0.010678    0.212091   -0.066088   -0.024010   -0.468736
H     1.594551   -1.654092   -0.466962   -0.732070    0.440721   -0.333078
O     0.008350    1.299491   -0.188906   -0.000806   -0.013693    0.001908
10
* Frequency(12)  860.0127
C    -1.297646   -0.683183    0.107581    0.030008   -0.013240   -0.191311
C     0.001524    0.103964   -0.015400   -0.002765   -0.010825    0.001406
H    -2.158164   -0.039156   -0.206417    0.045778    0.095129    0.457961
H    -1.617913   -1.423083    0.923081    0.765859    0.512221    0.190819
H    -1.052582   -1.281522   -0.854090   -0.776521   -0.437882    0.244293
C     1.288714   -0.698846    0.093345   -0.029027    0.035243    0.188376
H     1.032044   -0.989903    1.187294    0.797099   -0.502031   -0.103324
H     2.164895   -0.010907    0.207631   -0.066088   -0.024010   -0.468736
H     1.587586   -1.649899   -0.470131   -0.732070    0.440721   -0.333078
O     0.008342    1.299360   -0.188888   -0.000806   -0.013693    0.001908
10
* Frequency(12)  860.0127
C    -1.296258   -0.683796    0.098726    0.030008   -0.013240   -0.191311
C     0.001396    0.103463   -0.015335   -0.002765   -0.010825    0.001406
H    -2.156045   -0.034753   -0.185222    0.045778    0.095129    0.457961
H    -1.582468   -1.399377    0.931912    0.765859    0.512221    0.190819
H    -1.088521   -1.301788   -0.842784   -0.776521   -0.437882    0.244293
C     1.287371   -0.697215    0.102063   -0.029027    0.035243    0.188376
H     1.068935   -1.013138    1.182512    0.797099   -0.502031   -0.103324
H     2.161836   -0.012018    0.185937   -0.066088   -0.024010   -0.468736
H     1.553704   -1.629502   -0.485546   -0.732070    0.440721   -0.333078
O     0.008305    1.298727   -0.188799   -0.000806   -0.013693    0.001908
10
* Frequency(12)  860.0127
C    -1.293916   -0.684829    0.083798    0.030008   -0.013240   -0.191311
C     0.001180    0.102618   -0.015225   -0.002765   -0.010825    0.001406
H    -2.152473   -0.027330   -0.149485    0.045778    0.095129    0.457961
H    -1.522705   -1.359406    0.946803    0.765859    0.512221    0.190819
H    -1.149116   -1.335958   -0.823721   -0.776521   -0.437882    0.244293
C     1.285106   -0.694464    0.116763   -0.029027    0.035243    0.188376
H     1.131136   -1.052313    1.174449    0.797099   -0.502031   -0.103324
H     2.156679   -0.013891    0.149360   -0.066088   -0.024010   -0.468736
H     1.496578   -1.595110   -0.511538   -0.732070    0.440721   -0.333078
O     0.008242    1.297658   -0.188650   -0.000806   -0.013693    0.001908
10
* Frequency(12)  860.0127
C    -1.290875   -0.686171    0.064412    0.030008   -0.013240   -0.191311
C     0.000900    0.101521   -0.015083   -0.002765   -0.010825    0.001406
H    -2.147834   -0.017690   -0.103080    0.045778    0.095129    0.457961
H    -1.445101   -1.307503    0.966138    0.765859    0.512221    0.190819
H    -1.227800   -1.380328   -0.798967   -0.776521   -0.437882    0.244293
C     1.282165   -0.690893    0.135851   -0.029027    0.035243    0.188376
H     1.211906   -1.103184    1.163979    0.797099   -0.502031   -0.103324
H     2.149982   -0.016324    0.101863   -0.066088   -0.024010   -0.468736
H     1.422398   -1.550452   -0.545288   -0.732070    0.440721   -0.333078
O     0.008160    1.296271   -0.188457   -0.000806   -0.013693    0.001908
10
* Frequency(12)  860.0127
C    -1.287465   -0.687675    0.042671    0.030008   -0.013240   -0.191311
C     0.000586    0.100291   -0.014923   -0.002765   -0.010825    0.001406
H    -2.142632   -0.006880   -0.051035    0.045778    0.095129    0.457961
H    -1.358065   -1.249292    0.987824    0.765859    0.512221    0.190819
H    -1.316048   -1.430091   -0.771204   -0.776521   -0.437882    0.244293
C     1.278866   -0.686888    0.157259   -0.029027    0.035243    0.188376
H     1.302492   -1.160237    1.152237    0.797099   -0.502031   -0.103324
H     2.142472   -0.019053    0.048594   -0.066088   -0.024010   -0.468736
H     1.339202   -1.500367   -0.583141   -0.732070    0.440721   -0.333078
O     0.008068    1.294714   -0.188240   -0.000806   -0.013693    0.001908
