10
* (null), Energy   -1000.0000000
C    -1.287465   -0.687675    0.042671    0.300003   -0.189341    0.041320
C     0.000586    0.100291   -0.014923    0.001512    0.250796   -0.037052
H    -2.142632   -0.006880   -0.051035   -0.155116   -0.755624    0.103323
H    -1.358065   -1.249292    0.987824    0.756855   -0.226557    0.052779
H    -1.316048   -1.430091   -0.771204    0.711183   -0.251657    0.084654
C     1.278866   -0.686888    0.157259   -0.302389   -0.189690    0.013545
H     1.302492   -1.160237    1.152237   -0.711701   -0.255242   -0.008597
H     2.142472   -0.019053    0.048594    0.145355   -0.755265    0.115390
H     1.339202   -1.500367   -0.583141   -0.761500   -0.224084    0.014828
O     0.008068    1.294714   -0.188240    0.001596    0.251791   -0.036204
10
* Frequency(8)  381.8016
C    -1.253371   -0.709193    0.047366    0.300003   -0.189341    0.041320
C     0.000758    0.128793   -0.019134    0.001512    0.250796   -0.037052
H    -2.160260   -0.092752   -0.039293   -0.155116   -0.755624    0.103323
H    -1.272052   -1.275039    0.993822    0.756855   -0.226557    0.052779
H    -1.235226   -1.458691   -0.761584    0.711183   -0.251657    0.084654
C     1.244501   -0.708445    0.158798   -0.302389   -0.189690    0.013545
H     1.221611   -1.189244    1.151260   -0.711701   -0.255242   -0.008597
H     2.158990   -0.104885    0.061707    0.145355   -0.755265    0.115390
H     1.252661   -1.525833   -0.581456   -0.761500   -0.224084    0.014828
O     0.008250    1.323329   -0.192355    0.001596    0.251791   -0.036204
10
* Frequency(8)  381.8016
C    -1.222972   -0.728379    0.051553    0.300003   -0.189341    0.041320
C     0.000911    0.154206   -0.022888    0.001512    0.250796   -0.037052
H    -2.175978   -0.169320   -0.028824   -0.155116   -0.755624    0.103323
H    -1.195360   -1.297996    0.999170    0.756855   -0.226557    0.052779
H    -1.163162   -1.484191   -0.753006    0.711183   -0.251657    0.084654
C     1.213860   -0.727667    0.160171   -0.302389   -0.189690    0.013545
H     1.149494   -1.215108    1.150389   -0.711701   -0.255242   -0.008597
H     2.173719   -0.181416    0.073399    0.145355   -0.755265    0.115390
H     1.175499   -1.548539   -0.579953   -0.761500   -0.224084    0.014828
O     0.008412    1.348843   -0.196023    0.001596    0.251791   -0.036204
10
* Frequency(8)  381.8016
C    -1.199562   -0.743154    0.054778    0.300003   -0.189341    0.041320
C     0.001029    0.173776   -0.025779    0.001512    0.250796   -0.037052
H    -2.188082   -0.228284   -0.020761   -0.155116   -0.755624    0.103323
H    -1.136300   -1.315675    1.003289    0.756855   -0.226557    0.052779
H    -1.107666   -1.503829   -0.746400    0.711183   -0.251657    0.084654
C     1.190263   -0.742469    0.161228   -0.302389   -0.189690    0.013545
H     1.093958   -1.235025    1.149718   -0.711701   -0.255242   -0.008597
H     2.185062   -0.240352    0.082404    0.145355   -0.755265    0.115390
H     1.116076   -1.566025   -0.578796   -0.761500   -0.224084    0.014828
O     0.008536    1.368491   -0.198848    0.001596    0.251791   -0.036204
10
* Frequency(8)  381.8016
C    -1.185677   -0.751917    0.056690    0.300003   -0.189341    0.041320
C     0.001099    0.185383   -0.027494    0.001512    0.250796   -0.037052
H    -2.195261   -0.263255   -0.015979   -0.155116   -0.755624    0.103323
H    -1.101272   -1.326160    1.005732    0.756855   -0.226557    0.052779
H    -1.074751   -1.515476   -0.742482    0.711183   -0.251657    0.084654
C     1.176268   -0.751248    0.161855   -0.302389   -0.189690    0.013545
H     1.061019   -1.246838    1.149320   -0.711701   -0.255242   -0.008597
H     2.191789   -0.275307    0.087744    0.145355   -0.755265    0.115390
H     1.080832   -1.576396   -0.578110   -0.761500   -0.224084    0.014828
O     0.008610    1.380145   -0.200524    0.001596    0.251791   -0.036204
10
* Frequency(8)  381.8016
C    -1.182823   -0.753718    0.057083    0.300003   -0.189341    0.041320
C     0.001114    0.187770   -0.027847    0.001512    0.250796   -0.037052
H    -2.196737   -0.270445   -0.014996   -0.155116   -0.755624    0.103323
H    -1.094070   -1.328316    1.006234    0.756855   -0.226557    0.052779
H    -1.067984   -1.517870   -0.741676    0.711183   -0.251657    0.084654
C     1.173391   -0.753053    0.161984   -0.302389   -0.189690    0.013545
H     1.054247   -1.249267    1.149238   -0.711701   -0.255242   -0.008597
H     2.193172   -0.282493    0.088842    0.145355   -0.755265    0.115390
H     1.073587   -1.578528   -0.577969   -0.761500   -0.224084    0.014828
O     0.008625    1.382540   -0.200868    0.001596    0.251791   -0.036204
10
* Frequency(8)  381.8016
C    -1.191308   -0.748363    0.055915    0.300003   -0.189341    0.041320
C     0.001071    0.180676   -0.026799    0.001512    0.250796   -0.037052
H    -2.192350   -0.249073   -0.017918   -0.155116   -0.755624    0.103323
H    -1.115477   -1.321908    1.004741    0.756855   -0.226557    0.052779
H    -1.088099   -1.510753   -0.744071    0.711183   -0.251657    0.084654
C     1.181944   -0.747688    0.161600   -0.302389   -0.189690    0.013545
H     1.074377   -1.242048    1.149482   -0.711701   -0.255242   -0.008597
H     2.189061   -0.261131    0.085578    0.145355   -0.755265    0.115390
H     1.095125   -1.572190   -0.578388   -0.761500   -0.224084    0.014828
O     0.008580    1.375419   -0.199844    0.001596    0.251791   -0.036204
10
* Frequency(8)  381.8016
C    -1.210213   -0.736431    0.053311    0.300003   -0.189341    0.041320
C     0.000975    0.164872   -0.024464    0.001512    0.250796   -0.037052
H    -2.182575   -0.201455   -0.024430   -0.155116   -0.755624    0.103323
H    -1.163172   -1.307631    1.001415    0.756855   -0.226557    0.052779
H    -1.132916   -1.494894   -0.749405    0.711183   -0.251657    0.084654
C     1.201000   -0.735734    0.160747   -0.302389   -0.189690    0.013545
H     1.119226   -1.225963    1.150023   -0.711701   -0.255242   -0.008597
H     2.179901   -0.213536    0.078307    0.145355   -0.755265    0.115390
H     1.143113   -1.558069   -0.579323   -0.761500   -0.224084    0.014828
O     0.008479    1.359551   -0.197563    0.001596    0.251791   -0.036204
10
* Frequency(8)  381.8016
C    -1.237490   -0.719216    0.049554    0.300003   -0.189341    0.041320
C     0.000838    0.142069   -0.021095    0.001512    0.250796   -0.037052
H    -2.168471   -0.132753   -0.033824   -0.155116   -0.755624    0.103323
H    -1.231987   -1.287032    0.996616    0.756855   -0.226557    0.052779
H    -1.197578   -1.472013   -0.757102    0.711183   -0.251657    0.084654
C     1.228493   -0.718487    0.159515   -0.302389   -0.189690    0.013545
H     1.183936   -1.202756    1.150805   -0.711701   -0.255242   -0.008597
H     2.166685   -0.144866    0.067815    0.145355   -0.755265    0.115390
H     1.212350   -1.537695   -0.580671   -0.761500   -0.224084    0.014828
O     0.008334    1.336658   -0.194271    0.001596    0.251791   -0.036204
10
* Frequency(8)  381.8016
C    -1.270182   -0.698583    0.045051    0.300003   -0.189341    0.041320
C     0.000673    0.114739   -0.017057    0.001512    0.250796   -0.037052
H    -2.151568   -0.050410   -0.045083   -0.155116   -0.755624    0.103323
H    -1.314464   -1.262343    0.990865    0.756855   -0.226557    0.052779
H    -1.275078   -1.444589   -0.766327    0.711183   -0.251657    0.084654
C     1.261446   -0.697816    0.158039   -0.302389   -0.189690    0.013545
H     1.261492   -1.174941    1.151742   -0.711701   -0.255242   -0.008597
H     2.150845   -0.062562    0.055241    0.145355   -0.755265    0.115390
H     1.295333   -1.513276   -0.582287   -0.761500   -0.224084    0.014828
O     0.008160    1.309220   -0.190326    0.001596    0.251791   -0.036204
10
* Frequency(8)  381.8016
C    -1.304748   -0.676768    0.040290    0.300003   -0.189341    0.041320
C     0.000499    0.085843   -0.012788    0.001512    0.250796   -0.037052
H    -2.133696    0.036651   -0.056988   -0.155116   -0.755624    0.103323
H    -1.401666   -1.236240    0.984784    0.756855   -0.226557    0.052779
H    -1.357018   -1.415594   -0.776081    0.711183   -0.251657    0.084654
C     1.296286   -0.675961    0.156479   -0.302389   -0.189690    0.013545
H     1.343492   -1.145533    1.152732   -0.711701   -0.255242   -0.008597
H     2.134098    0.024456    0.041946    0.145355   -0.755265    0.115390
H     1.383070   -1.487458   -0.583995   -0.761500   -0.224084    0.014828
O     0.007976    1.280209   -0.186155    0.001596    0.251791   -0.036204
10
* Frequency(8)  381.8016
C    -1.337440   -0.656135    0.035788    0.300003   -0.189341    0.041320
C     0.000334    0.058513   -0.008751    0.001512    0.250796   -0.037052
H    -2.116792    0.118994   -0.068247   -0.155116   -0.755624    0.103323
H    -1.484143   -1.211551    0.979032    0.756855   -0.226557    0.052779
H    -1.434518   -1.388170   -0.785306    0.711183   -0.251657    0.084654
C     1.329238   -0.655289    0.155003   -0.302389   -0.189690    0.013545
H     1.421048   -1.117719    1.153669   -0.711701   -0.255242   -0.008597
H     2.118258    0.106760    0.029372    0.145355   -0.755265    0.115390
H     1.466054   -1.463039   -0.585611   -0.761500   -0.224084    0.014828
O     0.007802    1.252771   -0.182209    0.001596    0.251791   -0.036204
10
* Frequency(8)  381.8016
C    -1.364717   -0.638919    0.032031    0.300003   -0.189341    0.041320
C     0.000197    0.035710   -0.005382    0.001512    0.250796   -0.037052
H    -2.102689    0.187696   -0.077641   -0.155116   -0.755624    0.103323
H    -1.552958   -1.190953    0.974233    0.756855   -0.226557    0.052779
H    -1.499180   -1.365289   -0.793003    0.711183   -0.251657    0.084654
C     1.356732   -0.638042    0.153771   -0.302389   -0.189690    0.013545
H     1.485757   -1.094512    1.154451   -0.711701   -0.255242   -0.008597
H     2.105042    0.175430    0.018880    0.145355   -0.755265    0.115390
H     1.535290   -1.442664   -0.586959   -0.761500   -0.224084    0.014828
O     0.007657    1.229877   -0.178918    0.001596    0.251791   -0.036204
10
* Frequency(8)  381.8016
C    -1.383622   -0.626988    0.029427    0.300003   -0.189341    0.041320
C     0.000101    0.019905   -0.003047    0.001512    0.250796   -0.037052
H    -2.092914    0.235314   -0.084153   -0.155116   -0.755624    0.103323
H    -1.600653   -1.176676    0.970907    0.756855   -0.226557    0.052779
H    -1.543997   -1.349430   -0.798338    0.711183   -0.251657    0.084654
C     1.375788   -0.626089    0.152918   -0.302389   -0.189690    0.013545
H     1.530607   -1.078427    1.154993   -0.711701   -0.255242   -0.008597
H     2.095882    0.223025    0.011609    0.145355   -0.755265    0.115390
H     1.583278   -1.428543   -0.587894   -0.761500   -0.224084    0.014828
O     0.007557    1.214010   -0.176636    0.001596    0.251791   -0.036204
10
* Frequency(8)  381.8016
C    -1.392107   -0.621632    0.028258    0.300003   -0.189341    0.041320
C     0.000059    0.012812   -0.001999    0.001512    0.250796   -0.037052
H    -2.088527    0.256686   -0.087075   -0.155116   -0.755624    0.103323
H    -1.622060   -1.170268    0.969415    0.756855   -0.226557    0.052779
H    -1.564112   -1.342312   -0.800732    0.711183   -0.251657    0.084654
C     1.384341   -0.620724    0.152534   -0.302389   -0.189690    0.013545
H     1.550736   -1.071208    1.155236   -0.711701   -0.255242   -0.008597
H     2.091771    0.244387    0.008345    0.145355   -0.755265    0.115390
H     1.604816   -1.422205   -0.588313   -0.761500   -0.224084    0.014828
O     0.007512    1.206889   -0.175612    0.001596    0.251791   -0.036204
10
* Frequency(8)  381.8016
C    -1.389253   -0.623434    0.028651    0.300003   -0.189341    0.041320
C     0.000073    0.015198   -0.002352    0.001512    0.250796   -0.037052
H    -2.090002    0.249496   -0.086092   -0.155116   -0.755624    0.103323
H    -1.614859   -1.172423    0.969917    0.756855   -0.226557    0.052779
H    -1.557345   -1.344707   -0.799927    0.711183   -0.251657    0.084654
C     1.381464   -0.622528    0.152663   -0.302389   -0.189690    0.013545
H     1.543965   -1.073636    1.155154   -0.711701   -0.255242   -0.008597
H     2.093154    0.237201    0.009443    0.145355   -0.755265    0.115390
H     1.597571   -1.424337   -0.588172   -0.761500   -0.224084    0.014828
O     0.007527    1.209284   -0.175957    0.001596    0.251791   -0.036204
10
* Frequency(8)  381.8016
C    -1.375368   -0.632197    0.030564    0.300003   -0.189341    0.041320
C     0.000143    0.026805   -0.004066    0.001512    0.250796   -0.037052
H    -2.097182    0.214525   -0.081310   -0.155116   -0.755624    0.103323
H    -1.579830   -1.182909    0.972359    0.756855   -0.226557    0.052779
H    -1.524430   -1.356354   -0.796009    0.711183   -0.251657    0.084654
C     1.367468   -0.631308    0.153290   -0.302389   -0.189690    0.013545
H     1.511026   -1.085449    1.154756   -0.711701   -0.255242   -0.008597
H     2.099881    0.202246    0.014783    0.145355   -0.755265    0.115390
H     1.562327   -1.434708   -0.587486   -0.761500   -0.224084    0.014828
O     0.007601    1.220938   -0.177632    0.001596    0.251791   -0.036204
10
* Frequency(8)  381.8016
C    -1.351958   -0.646972    0.033788    0.300003   -0.189341    0.041320
C     0.000261    0.046376   -0.006958    0.001512    0.250796   -0.037052
H    -2.109286    0.155560   -0.073247   -0.155116   -0.755624    0.103323
H    -1.520770   -1.200588    0.976478    0.756855   -0.226557    0.052779
H    -1.468934   -1.375991   -0.789403    0.711183   -0.251657    0.084654
C     1.343872   -0.646110    0.154347   -0.302389   -0.189690    0.013545
H     1.455489   -1.105367    1.154085   -0.711701   -0.255242   -0.008597
H     2.111224    0.143310    0.023788    0.145355   -0.755265    0.115390
H     1.502905   -1.452194   -0.586329   -0.761500   -0.224084    0.014828
O     0.007725    1.240586   -0.180457    0.001596    0.251791   -0.036204
10
* Frequency(8)  381.8016
C    -1.321559   -0.666158    0.037975    0.300003   -0.189341    0.041320
C     0.000414    0.071789   -0.010712    0.001512    0.250796   -0.037052
H    -2.125004    0.078993   -0.062778   -0.155116   -0.755624    0.103323
H    -1.444078   -1.223545    0.981826    0.756855   -0.226557    0.052779
H    -1.396870   -1.401492   -0.780825    0.711183   -0.251657    0.084654
C     1.313231   -0.665331    0.155720   -0.302389   -0.189690    0.013545
H     1.383373   -1.131230    1.153214   -0.711701   -0.255242   -0.008597
H     2.125953    0.066779    0.035480    0.145355   -0.755265    0.115390
H     1.425742   -1.474901   -0.584826   -0.761500   -0.224084    0.014828
O     0.007887    1.266100   -0.184126    0.001596    0.251791   -0.036204
10
* Frequency(8)  381.8016
C    -1.287465   -0.687675    0.042671    0.300003   -0.189341    0.041320
C     0.000586    0.100291   -0.014923    0.001512    0.250796   -0.037052
H    -2.142632   -0.006880   -0.051035   -0.155116   -0.755624    0.103323
H    -1.358065   -1.249292    0.987824    0.756855   -0.226557    0.052779
H    -1.316048   -1.430091   -0.771204    0.711183   -0.251657    0.084654
C     1.278866   -0.686888    0.157259   -0.302389   -0.189690    0.013545
H     1.302492   -1.160237    1.152237   -0.711701   -0.255242   -0.008597
H     2.142472   -0.019053    0.048594    0.145355   -0.755265    0.115390
H     1.339202   -1.500367   -0.583141   -0.761500   -0.224084    0.014828
O     0.008068    1.294714   -0.188240    0.001596    0.251791   -0.036204
