10
* (null), Energy   -1000.0000000
C    -1.287465   -0.687675    0.042671    0.056378   -0.076043    0.011416
C     0.000586    0.100291   -0.014923    0.000490    0.001570   -0.000325
H    -2.142632   -0.006880   -0.051035   -0.708009    0.565426   -0.077422
H    -1.358065   -1.249292    0.987824    0.023038    0.155938   -0.279649
H    -1.316048   -1.430091   -0.771204    0.010987    0.188496    0.220524
C     1.278866   -0.686888    0.157259    0.097746    0.128819   -0.017647
H     1.302492   -1.160237    1.152237    0.017567   -0.196270    0.450114
H     2.142472   -0.019053    0.048594   -1.214746   -0.942077    0.154343
H     1.339202   -1.500367   -0.583141    0.036469   -0.408487   -0.391884
O     0.008068    1.294714   -0.188240   -0.000482   -0.000668    0.000132
10
* Frequency(28) 3197.5416
C    -1.281058   -0.696317    0.043968    0.056378   -0.076043    0.011416
C     0.000642    0.100469   -0.014960    0.000490    0.001570   -0.000325
H    -2.223093    0.057378   -0.059834   -0.708009    0.565426   -0.077422
H    -1.355447   -1.231570    0.956043    0.023038    0.155938   -0.279649
H    -1.314799   -1.408670   -0.746143    0.010987    0.188496    0.220524
C     1.289974   -0.672249    0.155254    0.097746    0.128819   -0.017647
H     1.304488   -1.182542    1.203390    0.017567   -0.196270    0.450114
H     2.004422   -0.126115    0.066134   -1.214746   -0.942077    0.154343
H     1.343346   -1.546789   -0.627677    0.036469   -0.408487   -0.391884
O     0.008014    1.294639   -0.188225   -0.000482   -0.000668    0.000132
10
* Frequency(28) 3197.5416
C    -1.275345   -0.704023    0.045125    0.056378   -0.076043    0.011416
C     0.000691    0.100628   -0.014993    0.000490    0.001570   -0.000325
H    -2.294836    0.114672   -0.067679   -0.708009    0.565426   -0.077422
H    -1.353112   -1.215769    0.927707    0.023038    0.155938   -0.279649
H    -1.313686   -1.389570   -0.723797    0.010987    0.188496    0.220524
C     1.299879   -0.659195    0.153465    0.097746    0.128819   -0.017647
H     1.306268   -1.202430    1.249000    0.017567   -0.196270    0.450114
H     1.881332   -0.221575    0.081773   -1.214746   -0.942077    0.154343
H     1.347042   -1.588181   -0.667386    0.036469   -0.408487   -0.391884
O     0.007965    1.294571   -0.188212   -0.000482   -0.000668    0.000132
10
* Frequency(28) 3197.5416
C    -1.270946   -0.709957    0.046016    0.056378   -0.076043    0.011416
C     0.000730    0.100751   -0.015018    0.000490    0.001570   -0.000325
H    -2.350084    0.158795   -0.073721   -0.708009    0.565426   -0.077422
H    -1.351315   -1.203600    0.905885    0.023038    0.155938   -0.279649
H    -1.312829   -1.374861   -0.706589    0.010987    0.188496    0.220524
C     1.307506   -0.649143    0.152088    0.097746    0.128819   -0.017647
H     1.307639   -1.217746    1.284124    0.017567   -0.196270    0.450114
H     1.786541   -0.295089    0.093817   -1.214746   -0.942077    0.154343
H     1.349887   -1.620057   -0.697966    0.036469   -0.408487   -0.391884
O     0.007927    1.294519   -0.188202   -0.000482   -0.000668    0.000132
10
* Frequency(28) 3197.5416
C    -1.268336   -0.713476    0.046544    0.056378   -0.076043    0.011416
C     0.000752    0.100824   -0.015033    0.000490    0.001570   -0.000325
H    -2.382852    0.184964   -0.077304   -0.708009    0.565426   -0.077422
H    -1.350248   -1.196383    0.892942    0.023038    0.155938   -0.279649
H    -1.312320   -1.366137   -0.696383    0.010987    0.188496    0.220524
C     1.312030   -0.643181    0.151272    0.097746    0.128819   -0.017647
H     1.308452   -1.226830    1.304956    0.017567   -0.196270    0.450114
H     1.730320   -0.338690    0.100961   -1.214746   -0.942077    0.154343
H     1.351575   -1.638962   -0.716103    0.036469   -0.408487   -0.391884
O     0.007905    1.294488   -0.188196   -0.000482   -0.000668    0.000132
10
* Frequency(28) 3197.5416
C    -1.267800   -0.714199    0.046653    0.056378   -0.076043    0.011416
C     0.000757    0.100839   -0.015036    0.000490    0.001570   -0.000325
H    -2.389588    0.190343   -0.078041   -0.708009    0.565426   -0.077422
H    -1.350029   -1.194900    0.890281    0.023038    0.155938   -0.279649
H    -1.312216   -1.364343   -0.694284    0.010987    0.188496    0.220524
C     1.312960   -0.641955    0.151104    0.097746    0.128819   -0.017647
H     1.308619   -1.228697    1.309239    0.017567   -0.196270    0.450114
H     1.718763   -0.347654    0.102429   -1.214746   -0.942077    0.154343
H     1.351922   -1.642849   -0.719832    0.036469   -0.408487   -0.391884
O     0.007900    1.294481   -0.188194   -0.000482   -0.000668    0.000132
10
* Frequency(28) 3197.5416
C    -1.269395   -0.712049    0.046330    0.056378   -0.076043    0.011416
C     0.000743    0.100794   -0.015027    0.000490    0.001570   -0.000325
H    -2.369563    0.174351   -0.075851   -0.708009    0.565426   -0.077422
H    -1.350681   -1.199310    0.898191    0.023038    0.155938   -0.279649
H    -1.312526   -1.369675   -0.700522    0.010987    0.188496    0.220524
C     1.310196   -0.645599    0.151603    0.097746    0.128819   -0.017647
H     1.308122   -1.223146    1.296508    0.017567   -0.196270    0.450114
H     1.753120   -0.321008    0.098064   -1.214746   -0.942077    0.154343
H     1.350891   -1.631295   -0.708748    0.036469   -0.408487   -0.391884
O     0.007914    1.294500   -0.188198   -0.000482   -0.000668    0.000132
10
* Frequency(28) 3197.5416
C    -1.272947   -0.707257    0.045610    0.056378   -0.076043    0.011416
C     0.000712    0.100695   -0.015007    0.000490    0.001570   -0.000325
H    -2.324946    0.138719   -0.070972   -0.708009    0.565426   -0.077422
H    -1.352133   -1.209137    0.915813    0.023038    0.155938   -0.279649
H    -1.313219   -1.381553   -0.714419    0.010987    0.188496    0.220524
C     1.304036   -0.653717    0.152715    0.097746    0.128819   -0.017647
H     1.307015   -1.210777    1.268143    0.017567   -0.196270    0.450114
H     1.829670   -0.261641    0.088337   -1.214746   -0.942077    0.154343
H     1.348593   -1.605554   -0.684052    0.036469   -0.408487   -0.391884
O     0.007944    1.294542   -0.188206   -0.000482   -0.000668    0.000132
10
* Frequency(28) 3197.5416
C    -1.278073   -0.700343    0.044572    0.056378   -0.076043    0.011416
C     0.000668    0.100552   -0.014977    0.000490    0.001570   -0.000325
H    -2.260573    0.087310   -0.063933   -0.708009    0.565426   -0.077422
H    -1.354227   -1.223315    0.941240    0.023038    0.155938   -0.279649
H    -1.314218   -1.398691   -0.734469    0.010987    0.188496    0.220524
C     1.295149   -0.665429    0.154319    0.097746    0.128819   -0.017647
H     1.305418   -1.192932    1.227218    0.017567   -0.196270    0.450114
H     1.940117   -0.175986    0.074304   -1.214746   -0.942077    0.154343
H     1.345277   -1.568413   -0.648422    0.036469   -0.408487   -0.391884
O     0.007988    1.294603   -0.188218   -0.000482   -0.000668    0.000132
10
* Frequency(28) 3197.5416
C    -1.284217   -0.692056    0.043328    0.056378   -0.076043    0.011416
C     0.000614    0.100381   -0.014942    0.000490    0.001570   -0.000325
H    -2.183419    0.025694   -0.055496   -0.708009    0.565426   -0.077422
H    -1.356738   -1.240308    0.971714    0.023038    0.155938   -0.279649
H    -1.315415   -1.419232   -0.758500    0.010987    0.188496    0.220524
C     1.284497   -0.679467    0.156242    0.097746    0.128819   -0.017647
H     1.303504   -1.171544    1.178167    0.017567   -0.196270    0.450114
H     2.072492   -0.073324    0.057485   -1.214746   -0.942077    0.154343
H     1.341303   -1.523899   -0.605717    0.036469   -0.408487   -0.391884
O     0.008041    1.294676   -0.188233   -0.000482   -0.000668    0.000132
10
* Frequency(28) 3197.5416
C    -1.290713   -0.683295    0.042013    0.056378   -0.076043    0.011416
C     0.000558    0.100200   -0.014904    0.000490    0.001570   -0.000325
H    -2.101845   -0.039453   -0.046575   -0.708009    0.565426   -0.077422
H    -1.359392   -1.258275    1.003934    0.023038    0.155938   -0.279649
H    -1.316681   -1.440950   -0.783908    0.010987    0.188496    0.220524
C     1.273235   -0.694309    0.158276    0.097746    0.128819   -0.017647
H     1.301480   -1.148931    1.126307    0.017567   -0.196270    0.450114
H     2.212451    0.035218    0.039702   -1.214746   -0.942077    0.154343
H     1.337101   -1.476835   -0.560565    0.036469   -0.408487   -0.391884
O     0.008096    1.294753   -0.188248   -0.000482   -0.000668    0.000132
10
* Frequency(28) 3197.5416
C    -1.296857   -0.675008    0.040769    0.056378   -0.076043    0.011416
C     0.000504    0.100029   -0.014869    0.000490    0.001570   -0.000325
H    -2.024691   -0.101069   -0.038138   -0.708009    0.565426   -0.077422
H    -1.361903   -1.275268    1.034409    0.023038    0.155938   -0.279649
H    -1.317878   -1.461491   -0.807939    0.010987    0.188496    0.220524
C     1.262583   -0.708347    0.160199    0.097746    0.128819   -0.017647
H     1.299566   -1.127542    1.077257    0.017567   -0.196270    0.450114
H     2.344826    0.137880    0.022883   -1.214746   -0.942077    0.154343
H     1.333127   -1.432320   -0.517860    0.036469   -0.408487   -0.391884
O     0.008149    1.294826   -0.188262   -0.000482   -0.000668    0.000132
10
* Frequency(28) 3197.5416
C    -1.301983   -0.668094    0.039731    0.056378   -0.076043    0.011416
C     0.000460    0.099886   -0.014839    0.000490    0.001570   -0.000325
H    -1.960317   -0.152479   -0.031099   -0.708009    0.565426   -0.077422
H    -1.363998   -1.289446    1.059835    0.023038    0.155938   -0.279649
H    -1.318877   -1.478630   -0.827990    0.010987    0.188496    0.220524
C     1.253696   -0.720060    0.161803    0.097746    0.128819   -0.017647
H     1.297968   -1.109697    1.036331    0.017567   -0.196270    0.450114
H     2.455273    0.223535    0.008850   -1.214746   -0.942077    0.154343
H     1.329811   -1.395180   -0.482230    0.036469   -0.408487   -0.391884
O     0.008192    1.294886   -0.188274   -0.000482   -0.000668    0.000132
10
* Frequency(28) 3197.5416
C    -1.305535   -0.663302    0.039012    0.056378   -0.076043    0.011416
C     0.000429    0.099787   -0.014819    0.000490    0.001570   -0.000325
H    -1.915700   -0.188110   -0.026220   -0.708009    0.565426   -0.077422
H    -1.365449   -1.299273    1.077458    0.023038    0.155938   -0.279649
H    -1.319570   -1.490508   -0.841887    0.010987    0.188496    0.220524
C     1.247536   -0.728177    0.162915    0.097746    0.128819   -0.017647
H     1.296861   -1.097329    1.007966    0.017567   -0.196270    0.450114
H     2.531823    0.282902   -0.000877   -1.214746   -0.942077    0.154343
H     1.327513   -1.369438   -0.457534    0.036469   -0.408487   -0.391884
O     0.008223    1.294929   -0.188283   -0.000482   -0.000668    0.000132
10
* Frequency(28) 3197.5416
C    -1.307130   -0.661151    0.038689    0.056378   -0.076043    0.011416
C     0.000415    0.099743   -0.014809    0.000490    0.001570   -0.000325
H    -1.895675   -0.204103   -0.024030   -0.708009    0.565426   -0.077422
H    -1.366101   -1.303684    1.085367    0.023038    0.155938   -0.279649
H    -1.319880   -1.495839   -0.848124    0.010987    0.188496    0.220524
C     1.244771   -0.731821    0.163414    0.097746    0.128819   -0.017647
H     1.296364   -1.091778    0.995235    0.017567   -0.196270    0.450114
H     2.566180    0.309548   -0.005242   -1.214746   -0.942077    0.154343
H     1.326481   -1.357885   -0.446450    0.036469   -0.408487   -0.391884
O     0.008236    1.294947   -0.188286   -0.000482   -0.000668    0.000132
10
* Frequency(28) 3197.5416
C    -1.306594   -0.661875    0.038797    0.056378   -0.076043    0.011416
C     0.000420    0.099758   -0.014813    0.000490    0.001570   -0.000325
H    -1.902411   -0.198723   -0.024767   -0.708009    0.565426   -0.077422
H    -1.365882   -1.302200    1.082706    0.023038    0.155938   -0.279649
H    -1.319776   -1.494046   -0.846026    0.010987    0.188496    0.220524
C     1.245701   -0.730595    0.163247    0.097746    0.128819   -0.017647
H     1.296532   -1.093645    0.999518    0.017567   -0.196270    0.450114
H     2.554623    0.300584   -0.003774   -1.214746   -0.942077    0.154343
H     1.326828   -1.361771   -0.450179    0.036469   -0.408487   -0.391884
O     0.008232    1.294941   -0.188285   -0.000482   -0.000668    0.000132
10
* Frequency(28) 3197.5416
C    -1.303984   -0.665394    0.039326    0.056378   -0.076043    0.011416
C     0.000443    0.099831   -0.014828    0.000490    0.001570   -0.000325
H    -1.935179   -0.172554   -0.028350   -0.708009    0.565426   -0.077422
H    -1.364816   -1.294983    1.069764    0.023038    0.155938   -0.279649
H    -1.319267   -1.485322   -0.835820    0.010987    0.188496    0.220524
C     1.250225   -0.724633    0.162430    0.097746    0.128819   -0.017647
H     1.297345   -1.102729    1.020350    0.017567   -0.196270    0.450114
H     2.498402    0.256983    0.003370   -1.214746   -0.942077    0.154343
H     1.328516   -1.380677   -0.468316    0.036469   -0.408487   -0.391884
O     0.008209    1.294910   -0.188279   -0.000482   -0.000668    0.000132
10
* Frequency(28) 3197.5416
C    -1.299585   -0.671328    0.040216    0.056378   -0.076043    0.011416
C     0.000481    0.099953   -0.014853    0.000490    0.001570   -0.000325
H    -1.990428   -0.128432   -0.034392   -0.708009    0.565426   -0.077422
H    -1.363018   -1.282814    1.047942    0.023038    0.155938   -0.279649
H    -1.318410   -1.470613   -0.818611    0.010987    0.188496    0.220524
C     1.257853   -0.714581    0.161053    0.097746    0.128819   -0.017647
H     1.298715   -1.118044    1.055474    0.017567   -0.196270    0.450114
H     2.403611    0.183469    0.015414   -1.214746   -0.942077    0.154343
H     1.331362   -1.412552   -0.498896    0.036469   -0.408487   -0.391884
O     0.008172    1.294858   -0.188269   -0.000482   -0.000668    0.000132
10
* Frequency(28) 3197.5416
C    -1.293872   -0.679033    0.041373    0.056378   -0.076043    0.011416
C     0.000530    0.100112   -0.014886    0.000490    0.001570   -0.000325
H    -2.062170   -0.071137   -0.042237   -0.708009    0.565426   -0.077422
H    -1.360683   -1.267013    1.019605    0.023038    0.155938   -0.279649
H    -1.317297   -1.451513   -0.796266    0.010987    0.188496    0.220524
C     1.267757   -0.701528    0.159265    0.097746    0.128819   -0.017647
H     1.300495   -1.137932    1.101084    0.017567   -0.196270    0.450114
H     2.280521    0.088009    0.031053   -1.214746   -0.942077    0.154343
H     1.335057   -1.453944   -0.538605    0.036469   -0.408487   -0.391884
O     0.008123    1.294790   -0.188255   -0.000482   -0.000668    0.000132
10
* Frequency(28) 3197.5416
C    -1.287465   -0.687675    0.042671    0.056378   -0.076043    0.011416
C     0.000586    0.100291   -0.014923    0.000490    0.001570   -0.000325
H    -2.142632   -0.006880   -0.051035   -0.708009    0.565426   -0.077422
H    -1.358065   -1.249292    0.987824    0.023038    0.155938   -0.279649
H    -1.316048   -1.430091   -0.771204    0.010987    0.188496    0.220524
C     1.278866   -0.686888    0.157259    0.097746    0.128819   -0.017647
H     1.302492   -1.160237    1.152237    0.017567   -0.196270    0.450114
H     2.142472   -0.019053    0.048594   -1.214746   -0.942077    0.154343
H     1.339202   -1.500367   -0.583141    0.036469   -0.408487   -0.391884
O     0.008068    1.294714   -0.188240   -0.000482   -0.000668    0.000132
