10
* (null), Energy   -1000.0000000
C    -1.287465   -0.687675    0.042671    0.108371   -0.095608    0.017167
C     0.000586    0.100291   -0.014923   -0.571136    0.000195   -0.023449
H    -2.142632   -0.006880   -0.051035    0.792486    0.737251   -0.074138
H    -1.358065   -1.249292    0.987824    0.282470    0.383168    0.281224
H    -1.316048   -1.430091   -0.771204    0.306220    0.337526   -0.348403
C     1.278866   -0.686888    0.157259    0.109685    0.095105   -0.010854
H     1.302492   -1.160237    1.152237    0.300131   -0.429735   -0.235240
H     2.142472   -0.019053    0.048594    0.783201   -0.736962    0.140643
H     1.339202   -1.500367   -0.583141    0.278889   -0.286771    0.379624
O     0.008068    1.294714   -0.188240    0.092225   -0.000051    0.003810
10
* Frequency(16) 1237.8117
C    -1.275149   -0.698541    0.044622    0.108371   -0.095608    0.017167
C    -0.064321    0.100313   -0.017588   -0.571136    0.000195   -0.023449
H    -2.052570    0.076905   -0.059461    0.792486    0.737251   -0.074138
H    -1.325964   -1.205747    1.019784    0.282470    0.383168    0.281224
H    -1.281248   -1.391733   -0.810798    0.306220    0.337526   -0.348403
C     1.291331   -0.676080    0.156026    0.109685    0.095105   -0.010854
H     1.336600   -1.209074    1.125503    0.300131   -0.429735   -0.235240
H     2.231478   -0.102805    0.064577    0.783201   -0.736962    0.140643
H     1.370896   -1.532957   -0.539999    0.278889   -0.286771    0.379624
O     0.018549    1.294709   -0.187807    0.092225   -0.000051    0.003810
10
* Frequency(16) 1237.8117
C    -1.264168   -0.708229    0.046361    0.108371   -0.095608    0.017167
C    -0.122194    0.100333   -0.019964   -0.571136    0.000195   -0.023449
H    -1.972267    0.151611   -0.066973    0.792486    0.737251   -0.074138
H    -1.297341   -1.166920    1.048280    0.282470    0.383168    0.281224
H    -1.250218   -1.357532   -0.846102    0.306220    0.337526   -0.348403
C     1.302445   -0.666443    0.154926    0.109685    0.095105   -0.010854
H     1.367012   -1.252619    1.101666    0.300131   -0.429735   -0.235240
H     2.310840   -0.177481    0.078828    0.783201   -0.736962    0.140643
H     1.399156   -1.562015   -0.501532    0.278889   -0.286771    0.379624
O     0.027894    1.294704   -0.187421    0.092225   -0.000051    0.003810
10
* Frequency(16) 1237.8117
C    -1.255711   -0.715689    0.047701    0.108371   -0.095608    0.017167
C    -0.166762    0.100348   -0.021794   -0.571136    0.000195   -0.023449
H    -1.910427    0.209141   -0.072759    0.792486    0.737251   -0.074138
H    -1.275299   -1.137020    1.070225    0.282470    0.383168    0.281224
H    -1.226323   -1.331193   -0.873289    0.306220    0.337526   -0.348403
C     1.311004   -0.659022    0.154079    0.109685    0.095105   -0.010854
H     1.390433   -1.286153    1.083310    0.300131   -0.429735   -0.235240
H     2.371956   -0.234989    0.089803    0.783201   -0.736962    0.140643
H     1.420919   -1.584393   -0.471908    0.278889   -0.286771    0.379624
O     0.035091    1.294700   -0.187124    0.092225   -0.000051    0.003810
10
* Frequency(16) 1237.8117
C    -1.250696   -0.720114    0.048495    0.108371   -0.095608    0.017167
C    -0.193195    0.100357   -0.022879   -0.571136    0.000195   -0.023449
H    -1.873749    0.243262   -0.076190    0.792486    0.737251   -0.074138
H    -1.262226   -1.119287    1.083241    0.282470    0.383168    0.281224
H    -1.212150   -1.315572   -0.889414    0.306220    0.337526   -0.348403
C     1.316081   -0.654620    0.153576    0.109685    0.095105   -0.010854
H     1.404323   -1.306042    1.072422    0.300131   -0.429735   -0.235240
H     2.408204   -0.269097    0.096312    0.783201   -0.736962    0.140643
H     1.433826   -1.597665   -0.454338    0.278889   -0.286771    0.379624
O     0.039359    1.294697   -0.186947    0.092225   -0.000051    0.003810
10
* Frequency(16) 1237.8117
C    -1.249665   -0.721024    0.048659    0.108371   -0.095608    0.017167
C    -0.198629    0.100359   -0.023102   -0.571136    0.000195   -0.023449
H    -1.866209    0.250277   -0.076895    0.792486    0.737251   -0.074138
H    -1.259538   -1.115641    1.085916    0.282470    0.383168    0.281224
H    -1.209237   -1.312361   -0.892729    0.306220    0.337526   -0.348403
C     1.317124   -0.653715    0.153473    0.109685    0.095105   -0.010854
H     1.407179   -1.310131    1.070184    0.300131   -0.429735   -0.235240
H     2.415656   -0.276109    0.097650    0.783201   -0.736962    0.140643
H     1.436479   -1.600394   -0.450726    0.278889   -0.286771    0.379624
O     0.040237    1.294697   -0.186911    0.092225   -0.000051    0.003810
10
* Frequency(16) 1237.8117
C    -1.252730   -0.718320    0.048173    0.108371   -0.095608    0.017167
C    -0.182475    0.100353   -0.022439   -0.571136    0.000195   -0.023449
H    -1.888624    0.229425   -0.074798    0.792486    0.737251   -0.074138
H    -1.267528   -1.126478    1.077962    0.282470    0.383168    0.281224
H    -1.217898   -1.321907   -0.882875    0.306220    0.337526   -0.348403
C     1.314022   -0.656405    0.153780    0.109685    0.095105   -0.010854
H     1.398690   -1.297976    1.076838    0.300131   -0.429735   -0.235240
H     2.393504   -0.255264    0.093673    0.783201   -0.736962    0.140643
H     1.428591   -1.592283   -0.461464    0.278889   -0.286771    0.379624
O     0.037628    1.294698   -0.187019    0.092225   -0.000051    0.003810
10
* Frequency(16) 1237.8117
C    -1.259559   -0.712295    0.047091    0.108371   -0.095608    0.017167
C    -0.146483    0.100341   -0.020961   -0.571136    0.000195   -0.023449
H    -1.938564    0.182965   -0.070126    0.792486    0.737251   -0.074138
H    -1.285328   -1.150625    1.060240    0.282470    0.383168    0.281224
H    -1.237195   -1.343177   -0.860919    0.306220    0.337526   -0.348403
C     1.307110   -0.662398    0.154464    0.109685    0.095105   -0.010854
H     1.379777   -1.270896    1.091662    0.300131   -0.429735   -0.235240
H     2.344149   -0.208823    0.084810    0.783201   -0.736962    0.140643
H     1.411017   -1.574211   -0.485387    0.278889   -0.286771    0.379624
O     0.031817    1.294701   -0.187259    0.092225   -0.000051    0.003810
10
* Frequency(16) 1237.8117
C    -1.269412   -0.703602    0.045530    0.108371   -0.095608    0.017167
C    -0.094555    0.100323   -0.018829   -0.571136    0.000195   -0.023449
H    -2.010618    0.115933   -0.063386    0.792486    0.737251   -0.074138
H    -1.311011   -1.185463    1.034671    0.282470    0.383168    0.281224
H    -1.265037   -1.373866   -0.829242    0.306220    0.337526   -0.348403
C     1.297137   -0.671045    0.155451    0.109685    0.095105   -0.010854
H     1.352488   -1.231823    1.113050    0.300131   -0.429735   -0.235240
H     2.272938   -0.141817    0.072022    0.783201   -0.736962    0.140643
H     1.385659   -1.548137   -0.519903    0.278889   -0.286771    0.379624
O     0.023431    1.294706   -0.187606    0.092225   -0.000051    0.003810
10
* Frequency(16) 1237.8117
C    -1.281222   -0.693183    0.043660    0.108371   -0.095608    0.017167
C    -0.032316    0.100302   -0.016274   -0.571136    0.000195   -0.023449
H    -2.096978    0.035592   -0.055306    0.792486    0.737251   -0.074138
H    -1.341792   -1.227218    1.004025    0.282470    0.383168    0.281224
H    -1.298407   -1.410647   -0.791275    0.306220    0.337526   -0.348403
C     1.285185   -0.681409    0.156634    0.109685    0.095105   -0.010854
H     1.319782   -1.184993    1.138685    0.300131   -0.429735   -0.235240
H     2.187590   -0.061508    0.056696    0.783201   -0.736962    0.140643
H     1.355268   -1.516887   -0.561272    0.278889   -0.286771    0.379624
O     0.013381    1.294712   -0.188021    0.092225   -0.000051    0.003810
10
* Frequency(16) 1237.8117
C    -1.293708   -0.682168    0.041682    0.108371   -0.095608    0.017167
C     0.033488    0.100280   -0.013572   -0.571136    0.000195   -0.023449
H    -2.188285   -0.049351   -0.046765    0.792486    0.737251   -0.074138
H    -1.374338   -1.271365    0.971623    0.282470    0.383168    0.281224
H    -1.333689   -1.449536   -0.751133    0.306220    0.337526   -0.348403
C     1.272547   -0.692367    0.157884    0.109685    0.095105   -0.010854
H     1.285202   -1.135481    1.165789    0.300131   -0.429735   -0.235240
H     2.097353    0.023402    0.040491    0.783201   -0.736962    0.140643
H     1.323135   -1.483846   -0.605010    0.278889   -0.286771    0.379624
O     0.002755    1.294717   -0.188460    0.092225   -0.000051    0.003810
10
* Frequency(16) 1237.8117
C    -1.305518   -0.671749    0.039811    0.108371   -0.095608    0.017167
C     0.095727    0.100258   -0.011017   -0.571136    0.000195   -0.023449
H    -2.274645   -0.129692   -0.038685    0.792486    0.737251   -0.074138
H    -1.405119   -1.313120    0.940977    0.282470    0.383168    0.281224
H    -1.367059   -1.486317   -0.713167    0.306220    0.337526   -0.348403
C     1.260594   -0.702731    0.159067    0.109685    0.095105   -0.010854
H     1.252495   -1.088651    1.191424    0.300131   -0.429735   -0.235240
H     2.012005    0.103711    0.025165    0.783201   -0.736962    0.140643
H     1.292744   -1.452596   -0.646379    0.278889   -0.286771    0.379624
O    -0.007295    1.294723   -0.188875    0.092225   -0.000051    0.003810
10
* Frequency(16) 1237.8117
C    -1.315371   -0.663056    0.038250    0.108371   -0.095608    0.017167
C     0.147656    0.100241   -0.008885   -0.571136    0.000195   -0.023449
H    -2.346700   -0.196724   -0.031945    0.792486    0.737251   -0.074138
H    -1.430802   -1.347959    0.915408    0.282470    0.383168    0.281224
H    -1.394901   -1.517005   -0.681489    0.306220    0.337526   -0.348403
C     1.250622   -0.711378    0.160054    0.109685    0.095105   -0.010854
H     1.225207   -1.049579    1.212812    0.300131   -0.429735   -0.235240
H     1.940795    0.170717    0.012378    0.783201   -0.736962    0.140643
H     1.267387   -1.426522   -0.680895    0.278889   -0.286771    0.379624
O    -0.015680    1.294727   -0.189221    0.092225   -0.000051    0.003810
10
* Frequency(16) 1237.8117
C    -1.322200   -0.657031    0.037168    0.108371   -0.095608    0.017167
C     0.183647    0.100228   -0.007407   -0.571136    0.000195   -0.023449
H    -2.396640   -0.243184   -0.027273    0.792486    0.737251   -0.074138
H    -1.448603   -1.372105    0.897686    0.282470    0.383168    0.281224
H    -1.414198   -1.538275   -0.659534    0.306220    0.337526   -0.348403
C     1.243710   -0.717371    0.160738    0.109685    0.095105   -0.010854
H     1.206293   -1.022498    1.227637    0.300131   -0.429735   -0.235240
H     1.891439    0.217159    0.003515    0.783201   -0.736962    0.140643
H     1.249812   -1.408451   -0.704818    0.278889   -0.286771    0.379624
O    -0.021492    1.294731   -0.189462    0.092225   -0.000051    0.003810
10
* Frequency(16) 1237.8117
C    -1.325265   -0.654327    0.036683    0.108371   -0.095608    0.017167
C     0.199801    0.100223   -0.006744   -0.571136    0.000195   -0.023449
H    -2.419055   -0.264036   -0.025176    0.792486    0.737251   -0.074138
H    -1.456592   -1.382942    0.889732    0.282470    0.383168    0.281224
H    -1.422859   -1.547822   -0.649680    0.306220    0.337526   -0.348403
C     1.240607   -0.720061    0.161045    0.109685    0.095105   -0.010854
H     1.197805   -1.010344    1.234290    0.300131   -0.429735   -0.235240
H     1.869287    0.238003   -0.000463    0.783201   -0.736962    0.140643
H     1.241924   -1.400340   -0.715555    0.278889   -0.286771    0.379624
O    -0.024100    1.294732   -0.189569    0.092225   -0.000051    0.003810
10
* Frequency(16) 1237.8117
C    -1.324234   -0.655236    0.036846    0.108371   -0.095608    0.017167
C     0.194367    0.100225   -0.006967   -0.571136    0.000195   -0.023449
H    -2.411514   -0.257021   -0.025881    0.792486    0.737251   -0.074138
H    -1.453904   -1.379297    0.892408    0.282470    0.383168    0.281224
H    -1.419946   -1.544610   -0.652995    0.306220    0.337526   -0.348403
C     1.241651   -0.719156    0.160942    0.109685    0.095105   -0.010854
H     1.200660   -1.014432    1.232052    0.300131   -0.429735   -0.235240
H     1.876739    0.230991    0.000875    0.783201   -0.736962    0.140643
H     1.244577   -1.403068   -0.711944    0.278889   -0.286771    0.379624
O    -0.023223    1.294732   -0.189533    0.092225   -0.000051    0.003810
10
* Frequency(16) 1237.8117
C    -1.319219   -0.659661    0.037641    0.108371   -0.095608    0.017167
C     0.167934    0.100234   -0.008052   -0.571136    0.000195   -0.023449
H    -2.374837   -0.222900   -0.029312    0.792486    0.737251   -0.074138
H    -1.440831   -1.361563    0.905423    0.282470    0.383168    0.281224
H    -1.405773   -1.528989   -0.669119    0.306220    0.337526   -0.348403
C     1.246727   -0.714755    0.160439    0.109685    0.095105   -0.010854
H     1.214551   -1.034321    1.221165    0.300131   -0.429735   -0.235240
H     1.912987    0.196883    0.007384    0.783201   -0.736962    0.140643
H     1.257485   -1.416341   -0.694374    0.278889   -0.286771    0.379624
O    -0.018954    1.294729   -0.189357    0.092225   -0.000051    0.003810
10
* Frequency(16) 1237.8117
C    -1.310762   -0.667122    0.038980    0.108371   -0.095608    0.017167
C     0.123366    0.100249   -0.009882   -0.571136    0.000195   -0.023449
H    -2.312996   -0.165370   -0.035098    0.792486    0.737251   -0.074138
H    -1.418789   -1.331663    0.927368    0.282470    0.383168    0.281224
H    -1.381878   -1.502651   -0.696307    0.306220    0.337526   -0.348403
C     1.255286   -0.707333    0.159592    0.109685    0.095105   -0.010854
H     1.237971   -1.067855    1.202808    0.300131   -0.429735   -0.235240
H     1.974103    0.139375    0.018359    0.783201   -0.736962    0.140643
H     1.279248   -1.438718   -0.664750    0.278889   -0.286771    0.379624
O    -0.011758    1.294725   -0.189059    0.092225   -0.000051    0.003810
10
* Frequency(16) 1237.8117
C    -1.299781   -0.676810    0.040720    0.108371   -0.095608    0.017167
C     0.065493    0.100269   -0.012258   -0.571136    0.000195   -0.023449
H    -2.232694   -0.090664   -0.042610    0.792486    0.737251   -0.074138
H    -1.390166   -1.292837    0.955864    0.282470    0.383168    0.281224
H    -1.350848   -1.468449   -0.731610    0.306220    0.337526   -0.348403
C     1.266401   -0.697696    0.158493    0.109685    0.095105   -0.010854
H     1.268383   -1.111400    1.178971    0.300131   -0.429735   -0.235240
H     2.053465    0.064699    0.032610    0.783201   -0.736962    0.140643
H     1.307507   -1.467777   -0.626283    0.278889   -0.286771    0.379624
O    -0.002412    1.294720   -0.188673    0.092225   -0.000051    0.003810
10
* Frequency(16) 1237.8117
C    -1.287465   -0.687675    0.042671    0.108371   -0.095608    0.017167
C     0.000586    0.100291   -0.014923   -0.571136    0.000195   -0.023449
H    -2.142632   -0.006880   -0.051035    0.792486    0.737251   -0.074138
H    -1.358065   -1.249292    0.987824    0.282470    0.383168    0.281224
H    -1.316048   -1.430091   -0.771204    0.306220    0.337526   -0.348403
C     1.278866   -0.686888    0.157259    0.109685    0.095105   -0.010854
H     1.302492   -1.160237    1.152237    0.300131   -0.429735   -0.235240
H     2.142472   -0.019053    0.048594    0.783201   -0.736962    0.140643
H     1.339202   -1.500367   -0.583141    0.278889   -0.286771    0.379624
O     0.008068    1.294714   -0.188240    0.092225   -0.000051    0.003810
