10
* (null), Energy   -1000.0000000
C    -1.287465   -0.687675    0.042671    0.002615   -0.006438   -0.039096
C     0.000586    0.100291   -0.014923   -0.000180   -0.000044    0.000260
H    -2.142632   -0.006880   -0.051035   -0.017158    0.068028    0.680432
H    -1.358065   -1.249292    0.987824    0.298214   -0.702489   -0.434447
H    -1.316048   -1.430091   -0.771204   -0.268606    0.595149   -0.582954
C     1.278866   -0.686888    0.157259   -0.002790    0.004991    0.039607
H     1.302492   -1.160237    1.152237    0.278181    0.733112    0.383109
H     2.142472   -0.019053    0.048594    0.014869   -0.132658   -0.668689
H     1.339202   -1.500367   -0.583141   -0.303515   -0.539380    0.618006
O     0.008068    1.294714   -0.188240    0.000141   -0.000251   -0.000292
10
* Frequency(6)   30.3072
C    -1.287168   -0.688407    0.038228    0.002615   -0.006438   -0.039096
C     0.000566    0.100286   -0.014893   -0.000180   -0.000044    0.000260
H    -2.144582    0.000851    0.026292   -0.017158    0.068028    0.680432
H    -1.324175   -1.329126    0.938452    0.298214   -0.702489   -0.434447
H    -1.346574   -1.362456   -0.837454   -0.268606    0.595149   -0.582954
C     1.278549   -0.686321    0.161760   -0.002790    0.004991    0.039607
H     1.334106   -1.076923    1.195776    0.278181    0.733112    0.383109
H     2.144161   -0.034129   -0.027399    0.014869   -0.132658   -0.668689
H     1.304709   -1.561664   -0.512908   -0.303515   -0.539380    0.618006
O     0.008084    1.294686   -0.188273    0.000141   -0.000251   -0.000292
10
* Frequency(6)   30.3072
C    -1.286903   -0.689059    0.034266    0.002615   -0.006438   -0.039096
C     0.000547    0.100281   -0.014867   -0.000180   -0.000044    0.000260
H    -2.146320    0.007745    0.095240   -0.017158    0.068028    0.680432
H    -1.293957   -1.400309    0.894429    0.298214   -0.702489   -0.434447
H    -1.373791   -1.302149   -0.896524   -0.268606    0.595149   -0.582954
C     1.278266   -0.685815    0.165773   -0.002790    0.004991    0.039607
H     1.362294   -1.002637    1.234596    0.278181    0.733112    0.383109
H     2.145668   -0.047571   -0.095157    0.014869   -0.132658   -0.668689
H     1.273954   -1.616320   -0.450285   -0.303515   -0.539380    0.618006
O     0.008099    1.294660   -0.188303    0.000141   -0.000251   -0.000292
10
* Frequency(6)   30.3072
C    -1.286699   -0.689562    0.031215    0.002615   -0.006438   -0.039096
C     0.000533    0.100278   -0.014847   -0.000180   -0.000044    0.000260
H    -2.147659    0.013053    0.148337   -0.017158    0.068028    0.680432
H    -1.270686   -1.455127    0.860528    0.298214   -0.702489   -0.434447
H    -1.394752   -1.255708   -0.942015   -0.268606    0.595149   -0.582954
C     1.278048   -0.685426    0.168864   -0.002790    0.004991    0.039607
H     1.384001   -0.945429    1.264491    0.278181    0.733112    0.383109
H     2.146828   -0.057923   -0.147338    0.014869   -0.132658   -0.668689
H     1.250269   -1.658410   -0.402060   -0.303515   -0.539380    0.618006
O     0.008110    1.294641   -0.188326    0.000141   -0.000251   -0.000292
10
* Frequency(6)   30.3072
C    -1.286578   -0.689860    0.029406    0.002615   -0.006438   -0.039096
C     0.000525    0.100276   -0.014835   -0.000180   -0.000044    0.000260
H    -2.148453    0.016202    0.179828   -0.017158    0.068028    0.680432
H    -1.256884   -1.487639    0.840421    0.298214   -0.702489   -0.434447
H    -1.407183   -1.228163   -0.968995   -0.268606    0.595149   -0.582954
C     1.277919   -0.685195    0.170697   -0.002790    0.004991    0.039607
H     1.396876   -0.911500    1.282222    0.278181    0.733112    0.383109
H     2.147517   -0.064062   -0.178286    0.014869   -0.132658   -0.668689
H     1.236222   -1.683373   -0.373457   -0.303515   -0.539380    0.618006
O     0.008116    1.294629   -0.188339    0.000141   -0.000251   -0.000292
10
* Frequency(6)   30.3072
C    -1.286553   -0.689921    0.029034    0.002615   -0.006438   -0.039096
C     0.000523    0.100275   -0.014832   -0.000180   -0.000044    0.000260
H    -2.148616    0.016849    0.186302   -0.017158    0.068028    0.680432
H    -1.254047   -1.494323    0.836287    0.298214   -0.702489   -0.434447
H    -1.409739   -1.222501   -0.974541   -0.268606    0.595149   -0.582954
C     1.277893   -0.685147    0.171074   -0.002790    0.004991    0.039607
H     1.399523   -0.904525    1.285867    0.278181    0.733112    0.383109
H     2.147658   -0.065325   -0.184648    0.014869   -0.132658   -0.668689
H     1.233334   -1.688505   -0.367577   -0.303515   -0.539380    0.618006
O     0.008118    1.294627   -0.188342    0.000141   -0.000251   -0.000292
10
* Frequency(6)   30.3072
C    -1.286627   -0.689739    0.030139    0.002615   -0.006438   -0.039096
C     0.000528    0.100277   -0.014840   -0.000180   -0.000044    0.000260
H    -2.148131    0.014925    0.167057   -0.017158    0.068028    0.680432
H    -1.262481   -1.474454    0.848575    0.298214   -0.702489   -0.434447
H    -1.402142   -1.239334   -0.958053   -0.268606    0.595149   -0.582954
C     1.277972   -0.685288    0.169954   -0.002790    0.004991    0.039607
H     1.391654   -0.925260    1.275032    0.278181    0.733112    0.383109
H     2.147237   -0.061572   -0.165735    0.014869   -0.132658   -0.668689
H     1.241919   -1.673249   -0.385057   -0.303515   -0.539380    0.618006
O     0.008114    1.294634   -0.188334    0.000141   -0.000251   -0.000292
10
* Frequency(6)   30.3072
C    -1.286792   -0.689333    0.032603    0.002615   -0.006438   -0.039096
C     0.000540    0.100279   -0.014856   -0.000180   -0.000044    0.000260
H    -2.147050    0.010638    0.124178   -0.017158    0.068028    0.680432
H    -1.281274   -1.430185    0.875953    0.298214   -0.702489   -0.434447
H    -1.385215   -1.276838   -0.921317   -0.268606    0.595149   -0.582954
C     1.278147   -0.685603    0.167458   -0.002790    0.004991    0.039607
H     1.374124   -0.971459    1.250889    0.278181    0.733112    0.383109
H     2.146300   -0.053213   -0.123596    0.014869   -0.132658   -0.668689
H     1.261046   -1.639259   -0.424002   -0.303515   -0.539380    0.618006
O     0.008105    1.294650   -0.188315    0.000141   -0.000251   -0.000292
10
* Frequency(6)   30.3072
C    -1.287029   -0.688748    0.036158    0.002615   -0.006438   -0.039096
C     0.000556    0.100283   -0.014880   -0.000180   -0.000044    0.000260
H    -2.145490    0.004453    0.062312   -0.017158    0.068028    0.680432
H    -1.308388   -1.366313    0.915453    0.298214   -0.702489   -0.434447
H    -1.360793   -1.330950   -0.868314   -0.268606    0.595149   -0.582954
C     1.278401   -0.686057    0.163857   -0.002790    0.004991    0.039607
H     1.348832   -1.038114    1.216056    0.278181    0.733112    0.383109
H     2.144949   -0.041151   -0.062798    0.014869   -0.132658   -0.668689
H     1.288642   -1.590218   -0.480192   -0.303515   -0.539380    0.618006
O     0.008092    1.294673   -0.188289    0.000141   -0.000251   -0.000292
10
* Frequency(6)   30.3072
C    -1.287314   -0.688046    0.040418    0.002615   -0.006438   -0.039096
C     0.000576    0.100288   -0.014908   -0.000180   -0.000044    0.000260
H    -2.143620   -0.002961   -0.011837   -0.017158    0.068028    0.680432
H    -1.340886   -1.289761    0.962796    0.298214   -0.702489   -0.434447
H    -1.331522   -1.395806   -0.804787   -0.268606    0.595149   -0.582954
C     1.278705   -0.686601    0.159541   -0.002790    0.004991    0.039607
H     1.318517   -1.118004    1.174307    0.278181    0.733112    0.383109
H     2.143328   -0.026695    0.010072    0.014869   -0.132658   -0.668689
H     1.321717   -1.531439   -0.547539   -0.303515   -0.539380    0.618006
O     0.008077    1.294700   -0.188257    0.000141   -0.000251   -0.000292
10
* Frequency(6)   30.3072
C    -1.287616   -0.687304    0.044923    0.002615   -0.006438   -0.039096
C     0.000596    0.100293   -0.014938   -0.000180   -0.000044    0.000260
H    -2.141643   -0.010799   -0.090234   -0.017158    0.068028    0.680432
H    -1.375245   -1.208823    1.012852    0.298214   -0.702489   -0.434447
H    -1.300574   -1.464377   -0.737621   -0.268606    0.595149   -0.582954
C     1.279027   -0.687176    0.154977   -0.002790    0.004991    0.039607
H     1.286466   -1.202470    1.130167    0.278181    0.733112    0.383109
H     2.141615   -0.011411    0.087115    0.014869   -0.132658   -0.668689
H     1.356687   -1.469294   -0.618743   -0.303515   -0.539380    0.618006
O     0.008060    1.294729   -0.188223    0.000141   -0.000251   -0.000292
10
* Frequency(6)   30.3072
C    -1.287901   -0.686603    0.049183    0.002615   -0.006438   -0.039096
C     0.000616    0.100298   -0.014966   -0.000180   -0.000044    0.000260
H    -2.139774   -0.018212   -0.164383   -0.017158    0.068028    0.680432
H    -1.407742   -1.132270    1.060195    0.298214   -0.702489   -0.434447
H    -1.271303   -1.529232   -0.674095   -0.268606    0.595149   -0.582954
C     1.279331   -0.687720    0.150661   -0.002790    0.004991    0.039607
H     1.256152   -1.282360    1.088418    0.278181    0.733112    0.383109
H     2.139995    0.003045    0.159985    0.014869   -0.132658   -0.668689
H     1.389762   -1.410516   -0.686089   -0.303515   -0.539380    0.618006
O     0.008045    1.294756   -0.188192    0.000141   -0.000251   -0.000292
10
* Frequency(6)   30.3072
C    -1.288138   -0.686017    0.052738    0.002615   -0.006438   -0.039096
C     0.000632    0.100302   -0.014990   -0.000180   -0.000044    0.000260
H    -2.138214   -0.024397   -0.226249   -0.017158    0.068028    0.680432
H    -1.434856   -1.068398    1.099696    0.298214   -0.702489   -0.434447
H    -1.246881   -1.583344   -0.621092   -0.268606    0.595149   -0.582954
C     1.279584   -0.688173    0.147060   -0.002790    0.004991    0.039607
H     1.230859   -1.349016    1.053585    0.278181    0.733112    0.383109
H     2.138643    0.015107    0.220783    0.014869   -0.132658   -0.668689
H     1.417358   -1.361475   -0.742280   -0.303515   -0.539380    0.618006
O     0.008032    1.294779   -0.188165    0.000141   -0.000251   -0.000292
10
* Frequency(6)   30.3072
C    -1.288303   -0.685612    0.055202    0.002615   -0.006438   -0.039096
C     0.000644    0.100305   -0.015006   -0.000180   -0.000044    0.000260
H    -2.137132   -0.028684   -0.269128   -0.017158    0.068028    0.680432
H    -1.453649   -1.024130    1.127073    0.298214   -0.702489   -0.434447
H    -1.229954   -1.620849   -0.584355   -0.268606    0.595149   -0.582954
C     1.279760   -0.688488    0.144564   -0.002790    0.004991    0.039607
H     1.213329   -1.395215    1.029443    0.278181    0.733112    0.383109
H     2.137706    0.023467    0.262922    0.014869   -0.132658   -0.668689
H     1.436484   -1.327484   -0.781225   -0.303515   -0.539380    0.618006
O     0.008023    1.294795   -0.188147    0.000141   -0.000251   -0.000292
10
* Frequency(6)   30.3072
C    -1.288377   -0.685430    0.056308    0.002615   -0.006438   -0.039096
C     0.000649    0.100306   -0.015013   -0.000180   -0.000044    0.000260
H    -2.136647   -0.030608   -0.288373   -0.017158    0.068028    0.680432
H    -1.462083   -1.004260    1.139361    0.298214   -0.702489   -0.434447
H    -1.222357   -1.637682   -0.567867   -0.268606    0.595149   -0.582954
C     1.279839   -0.688629    0.143444   -0.002790    0.004991    0.039607
H     1.205461   -1.415950    1.018607    0.278181    0.733112    0.383109
H     2.137285    0.027219    0.281835    0.014869   -0.132658   -0.668689
H     1.445069   -1.312229   -0.798704   -0.303515   -0.539380    0.618006
O     0.008019    1.294802   -0.188138    0.000141   -0.000251   -0.000292
10
* Frequency(6)   30.3072
C    -1.288352   -0.685491    0.055936    0.002615   -0.006438   -0.039096
C     0.000647    0.100306   -0.015011   -0.000180   -0.000044    0.000260
H    -2.136810   -0.029961   -0.281899   -0.017158    0.068028    0.680432
H    -1.459246   -1.010944    1.135228    0.298214   -0.702489   -0.434447
H    -1.224913   -1.632020   -0.573414   -0.268606    0.595149   -0.582954
C     1.279812   -0.688582    0.143821   -0.002790    0.004991    0.039607
H     1.208108   -1.408975    1.022252    0.278181    0.733112    0.383109
H     2.137427    0.025957    0.275473    0.014869   -0.132658   -0.668689
H     1.442181   -1.317360   -0.792824   -0.303515   -0.539380    0.618006
O     0.008020    1.294800   -0.188141    0.000141   -0.000251   -0.000292
10
* Frequency(6)   30.3072
C    -1.288231   -0.685789    0.054126    0.002615   -0.006438   -0.039096
C     0.000639    0.100304   -0.014999   -0.000180   -0.000044    0.000260
H    -2.137604   -0.026812   -0.250408   -0.017158    0.068028    0.680432
H    -1.445444   -1.043457    1.115121    0.298214   -0.702489   -0.434447
H    -1.237344   -1.604475   -0.600394   -0.268606    0.595149   -0.582954
C     1.279683   -0.688351    0.145654   -0.002790    0.004991    0.039607
H     1.220982   -1.375045    1.039983    0.278181    0.733112    0.383109
H     2.138115    0.019817    0.244525    0.014869   -0.132658   -0.668689
H     1.428134   -1.342324   -0.764222   -0.303515   -0.539380    0.618006
O     0.008027    1.294788   -0.188155    0.000141   -0.000251   -0.000292
10
* Frequency(6)   30.3072
C    -1.288027   -0.686291    0.051075    0.002615   -0.006438   -0.039096
C     0.000625    0.100300   -0.014979   -0.000180   -0.000044    0.000260
H    -2.138943   -0.021504   -0.197311   -0.017158    0.068028    0.680432
H    -1.422173   -1.098275    1.081219    0.298214   -0.702489   -0.434447
H    -1.258305   -1.558033   -0.645884   -0.268606    0.595149   -0.582954
C     1.279466   -0.687961    0.148745   -0.002790    0.004991    0.039607
H     1.242690   -1.317838    1.069878    0.278181    0.733112    0.383109
H     2.139275    0.009465    0.192345    0.014869   -0.132658   -0.668689
H     1.404450   -1.384414   -0.715997   -0.303515   -0.539380    0.618006
O     0.008038    1.294768   -0.188178    0.000141   -0.000251   -0.000292
10
* Frequency(6)   30.3072
C    -1.287762   -0.686944    0.047114    0.002615   -0.006438   -0.039096
C     0.000607    0.100296   -0.014952   -0.000180   -0.000044    0.000260
H    -2.140682   -0.014611   -0.128363   -0.017158    0.068028    0.680432
H    -1.391956   -1.169457    1.037197    0.298214   -0.702489   -0.434447
H    -1.285522   -1.497727   -0.704955   -0.268606    0.595149   -0.582954
C     1.279183   -0.687455    0.152758   -0.002790    0.004991    0.039607
H     1.270878   -1.243552    1.108699    0.278181    0.733112    0.383109
H     2.140782   -0.003977    0.124587    0.014869   -0.132658   -0.668689
H     1.373695   -1.439069   -0.653374   -0.303515   -0.539380    0.618006
O     0.008052    1.294743   -0.188207    0.000141   -0.000251   -0.000292
10
* Frequency(6)   30.3072
C    -1.287465   -0.687675    0.042671    0.002615   -0.006438   -0.039096
C     0.000586    0.100291   -0.014923   -0.000180   -0.000044    0.000260
H    -2.142632   -0.006880   -0.051035   -0.017158    0.068028    0.680432
H    -1.358065   -1.249292    0.987824    0.298214   -0.702489   -0.434447
H    -1.316048   -1.430091   -0.771204   -0.268606    0.595149   -0.582954
C     1.278866   -0.686888    0.157259   -0.002790    0.004991    0.039607
H     1.302492   -1.160237    1.152237    0.278181    0.733112    0.383109
H     2.142472   -0.019053    0.048594    0.014869   -0.132658   -0.668689
H     1.339202   -1.500367   -0.583141   -0.303515   -0.539380    0.618006
O     0.008068    1.294714   -0.188240    0.000141   -0.000251   -0.000292
