10
* (null), Energy   -1000.0000000
C    -1.287465   -0.687675    0.042671    0.288749    0.117699   -0.001427
C     0.000586    0.100291   -0.014923   -0.330986    0.000663   -0.009680
H    -2.142632   -0.006880   -0.051035   -0.235560   -0.533743    0.002017
H    -1.358065   -1.249292    0.987824   -0.744360   -0.265555   -0.300250
H    -1.316048   -1.430091   -0.771204   -0.806751   -0.181353    0.300311
C     1.278866   -0.686888    0.157259    0.288818   -0.117469    0.034541
H     1.302492   -1.160237    1.152237   -0.815526    0.270158    0.236825
H     2.142472   -0.019053    0.048594   -0.232626    0.516726   -0.168928
H     1.339202   -1.500367   -0.583141   -0.741656    0.181725   -0.370363
O     0.008068    1.294714   -0.188240    0.040215    0.000088    0.001333
10
* Frequency(18) 1380.9201
C    -1.254650   -0.674300    0.042508    0.288749    0.117699   -0.001427
C    -0.037029    0.100366   -0.016023   -0.330986    0.000663   -0.009680
H    -2.169402   -0.067537   -0.050806   -0.235560   -0.533743    0.002017
H    -1.442658   -1.279471    0.953702   -0.744360   -0.265555   -0.300250
H    -1.407731   -1.450701   -0.737075   -0.806751   -0.181353    0.300311
C     1.311689   -0.700238    0.161184    0.288818   -0.117469    0.034541
H     1.209811   -1.129535    1.179151   -0.815526    0.270158    0.236825
H     2.116035    0.039670    0.029396   -0.232626    0.516726   -0.168928
H     1.254916   -1.479715   -0.625231   -0.741656    0.181725   -0.370363
O     0.012639    1.294724   -0.188089    0.040215    0.000088    0.001333
10
* Frequency(18) 1380.9201
C    -1.225391   -0.662373    0.042364    0.288749    0.117699   -0.001427
C    -0.070568    0.100433   -0.017004   -0.330986    0.000663   -0.009680
H    -2.193271   -0.121621   -0.050602   -0.235560   -0.533743    0.002017
H    -1.518083   -1.306379    0.923278   -0.744360   -0.265555   -0.300250
H    -1.489479   -1.469078   -0.706645   -0.806751   -0.181353    0.300311
C     1.340954   -0.712141    0.164684    0.288818   -0.117469    0.034541
H     1.127175   -1.102160    1.203148   -0.815526    0.270158    0.236825
H     2.092463    0.092030    0.012278   -0.232626    0.516726   -0.168928
H     1.179764   -1.461300   -0.662760   -0.741656    0.181725   -0.370363
O     0.016714    1.294733   -0.187954    0.040215    0.000088    0.001333
10
* Frequency(18) 1380.9201
C    -1.202859   -0.653189    0.042252    0.288749    0.117699   -0.001427
C    -0.096396    0.100485   -0.017759   -0.330986    0.000663   -0.009680
H    -2.211653   -0.163271   -0.050445   -0.235560   -0.533743    0.002017
H    -1.576169   -1.327101    0.899848   -0.744360   -0.265555   -0.300250
H    -1.552433   -1.483229   -0.683211   -0.806751   -0.181353    0.300311
C     1.363492   -0.721308    0.167380    0.288818   -0.117469    0.034541
H     1.063536   -1.081079    1.221629   -0.815526    0.270158    0.236825
H     2.074310    0.132352   -0.000904   -0.232626    0.516726   -0.168928
H     1.121890   -1.447120   -0.691660   -0.741656    0.181725   -0.370363
O     0.019852    1.294740   -0.187850    0.040215    0.000088    0.001333
10
* Frequency(18) 1380.9201
C    -1.189495   -0.647741    0.042186    0.288749    0.117699   -0.001427
C    -0.111714    0.100516   -0.018207   -0.330986    0.000663   -0.009680
H    -2.222555   -0.187973   -0.050351   -0.235560   -0.533743    0.002017
H    -1.610619   -1.339392    0.885952   -0.744360   -0.265555   -0.300250
H    -1.589771   -1.491623   -0.669312   -0.806751   -0.181353    0.300311
C     1.376859   -0.726744    0.168978    0.288818   -0.117469    0.034541
H     1.025792   -1.068575    1.232589   -0.815526    0.270158    0.236825
H     2.063544    0.156267   -0.008722   -0.232626    0.516726   -0.168928
H     1.087565   -1.438709   -0.708801   -0.741656    0.181725   -0.370363
O     0.021713    1.294744   -0.187788    0.040215    0.000088    0.001333
10
* Frequency(18) 1380.9201
C    -1.186748   -0.646622    0.042173    0.288749    0.117699   -0.001427
C    -0.114863    0.100522   -0.018299   -0.330986    0.000663   -0.009680
H    -2.224796   -0.193051   -0.050332   -0.235560   -0.533743    0.002017
H    -1.617701   -1.341918    0.883096   -0.744360   -0.265555   -0.300250
H    -1.597446   -1.493348   -0.666455   -0.806751   -0.181353    0.300311
C     1.379607   -0.727862    0.169307    0.288818   -0.117469    0.034541
H     1.018033   -1.066005    1.234843   -0.815526    0.270158    0.236825
H     2.061330    0.161184   -0.010329   -0.232626    0.516726   -0.168928
H     1.080509   -1.436980   -0.712325   -0.741656    0.181725   -0.370363
O     0.022096    1.294745   -0.187775    0.040215    0.000088    0.001333
10
* Frequency(18) 1380.9201
C    -1.194915   -0.649951    0.042213    0.288749    0.117699   -0.001427
C    -0.105502    0.100503   -0.018025   -0.330986    0.000663   -0.009680
H    -2.218134   -0.177955   -0.050389   -0.235560   -0.533743    0.002017
H    -1.596648   -1.334407    0.891588   -0.744360   -0.265555   -0.300250
H    -1.574628   -1.488219   -0.674948   -0.806751   -0.181353    0.300311
C     1.371438   -0.724539    0.168330    0.288818   -0.117469    0.034541
H     1.041099   -1.073646    1.228144   -0.815526    0.270158    0.236825
H     2.067910    0.146569   -0.005551   -0.232626    0.516726   -0.168928
H     1.101485   -1.442120   -0.701850   -0.741656    0.181725   -0.370363
O     0.020958    1.294743   -0.187813    0.040215    0.000088    0.001333
10
* Frequency(18) 1380.9201
C    -1.213111   -0.657368    0.042303    0.288749    0.117699   -0.001427
C    -0.084644    0.100462   -0.017415   -0.330986    0.000663   -0.009680
H    -2.203289   -0.144320   -0.050516   -0.235560   -0.533743    0.002017
H    -1.549740   -1.317673    0.910509   -0.744360   -0.265555   -0.300250
H    -1.523789   -1.476790   -0.693873   -0.806751   -0.181353    0.300311
C     1.353237   -0.717137    0.166153    0.288818   -0.117469    0.034541
H     1.092491   -1.090671    1.213220   -0.815526    0.270158    0.236825
H     2.082570    0.114006    0.005094   -0.232626    0.516726   -0.168928
H     1.148223   -1.453572   -0.678511   -0.741656    0.181725   -0.370363
O     0.018424    1.294737   -0.187897    0.040215    0.000088    0.001333
10
* Frequency(18) 1380.9201
C    -1.239365   -0.668069    0.042433    0.288749    0.117699   -0.001427
C    -0.054550    0.100401   -0.016535   -0.330986    0.000663   -0.009680
H    -2.181872   -0.095791   -0.050700   -0.235560   -0.533743    0.002017
H    -1.482062   -1.293528    0.937808   -0.744360   -0.265555   -0.300250
H    -1.450438   -1.460301   -0.721178   -0.806751   -0.181353    0.300311
C     1.326978   -0.706456    0.163013    0.288818   -0.117469    0.034541
H     1.166640   -1.115234    1.191688   -0.815526    0.270158    0.236825
H     2.103720    0.067024    0.020453   -0.232626    0.516726   -0.168928
H     1.215655   -1.470095   -0.644837   -0.741656    0.181725   -0.370363
O     0.014767    1.294729   -0.188018    0.040215    0.000088    0.001333
10
* Frequency(18) 1380.9201
C    -1.270831   -0.680895    0.042588    0.288749    0.117699   -0.001427
C    -0.018481    0.100329   -0.015481   -0.330986    0.000663   -0.009680
H    -2.156202   -0.037627   -0.050919   -0.235560   -0.533743    0.002017
H    -1.400946   -1.264590    0.970527   -0.744360   -0.265555   -0.300250
H    -1.362523   -1.440539   -0.753904   -0.806751   -0.181353    0.300311
C     1.295504   -0.693655    0.159249    0.288818   -0.117469    0.034541
H     1.255511   -1.144674    1.165880   -0.815526    0.270158    0.236825
H     2.129070    0.010715    0.038862   -0.232626    0.516726   -0.168928
H     1.296476   -1.489898   -0.604477   -0.741656    0.181725   -0.370363
O     0.010385    1.294720   -0.188164    0.040215    0.000088    0.001333
10
* Frequency(18) 1380.9201
C    -1.304099   -0.694456    0.042753    0.288749    0.117699   -0.001427
C     0.019654    0.100253   -0.014365   -0.330986    0.000663   -0.009680
H    -2.129062    0.023868   -0.051152   -0.235560   -0.533743    0.002017
H    -1.315184   -1.233994    1.005121   -0.744360   -0.265555   -0.300250
H    -1.269573   -1.419644   -0.788505   -0.806751   -0.181353    0.300311
C     1.262228   -0.680121    0.155269    0.288818   -0.117469    0.034541
H     1.349473   -1.175801    1.138594   -0.815526    0.270158    0.236825
H     2.155873   -0.048821    0.058325   -0.232626    0.516726   -0.168928
H     1.381927   -1.510836   -0.561805   -0.741656    0.181725   -0.370363
O     0.005752    1.294709   -0.188317    0.040215    0.000088    0.001333
10
* Frequency(18) 1380.9201
C    -1.335565   -0.707282    0.042908    0.288749    0.117699   -0.001427
C     0.055722    0.100180   -0.013310   -0.330986    0.000663   -0.009680
H    -2.103392    0.082032   -0.051371   -0.235560   -0.533743    0.002017
H    -1.234068   -1.205055    1.037840   -0.744360   -0.265555   -0.300250
H    -1.181658   -1.399881   -0.821230   -0.806751   -0.181353    0.300311
C     1.230754   -0.667320    0.151505    0.288818   -0.117469    0.034541
H     1.438343   -1.205241    1.112787   -0.815526    0.270158    0.236825
H     2.181223   -0.105130    0.076734   -0.232626    0.516726   -0.168928
H     1.462748   -1.530639   -0.521445   -0.741656    0.181725   -0.370363
O     0.001369    1.294700   -0.188462    0.040215    0.000088    0.001333
10
* Frequency(18) 1380.9201
C    -1.361819   -0.717983    0.043038    0.288749    0.117699   -0.001427
C     0.085816    0.100120   -0.012430   -0.330986    0.000663   -0.009680
H    -2.081974    0.130561   -0.051555   -0.235560   -0.533743    0.002017
H    -1.166390   -1.180910    1.065140   -0.744360   -0.265555   -0.300250
H    -1.108307   -1.383392   -0.848535   -0.806751   -0.181353    0.300311
C     1.204494   -0.656640    0.148365    0.288818   -0.117469    0.034541
H     1.512492   -1.229804    1.091254   -0.815526    0.270158    0.236825
H     2.202374   -0.152112    0.092093   -0.232626    0.516726   -0.168928
H     1.530181   -1.547162   -0.487771   -0.741656    0.181725   -0.370363
O    -0.002287    1.294692   -0.188584    0.040215    0.000088    0.001333
10
* Frequency(18) 1380.9201
C    -1.380015   -0.725400    0.043128    0.288749    0.117699   -0.001427
C     0.106674    0.100078   -0.011820   -0.330986    0.000663   -0.009680
H    -2.067130    0.164196   -0.051682   -0.235560   -0.533743    0.002017
H    -1.119482   -1.164176    1.084061   -0.744360   -0.265555   -0.300250
H    -1.057468   -1.371964   -0.867460   -0.806751   -0.181353    0.300311
C     1.186294   -0.649237    0.146188    0.288818   -0.117469    0.034541
H     1.563885   -1.246828    1.076330   -0.815526    0.270158    0.236825
H     2.217033   -0.184674    0.102738   -0.232626    0.516726   -0.168928
H     1.576918   -1.558613   -0.464432   -0.741656    0.181725   -0.370363
O    -0.004821    1.294686   -0.188667    0.040215    0.000088    0.001333
10
* Frequency(18) 1380.9201
C    -1.388182   -0.728729    0.043169    0.288749    0.117699   -0.001427
C     0.116036    0.100059   -0.011547   -0.330986    0.000663   -0.009680
H    -2.060467    0.179292   -0.051739   -0.235560   -0.533743    0.002017
H    -1.098429   -1.156665    1.092553   -0.744360   -0.265555   -0.300250
H    -1.034650   -1.366834   -0.875954   -0.806751   -0.181353    0.300311
C     1.178125   -0.645914    0.145211    0.288818   -0.117469    0.034541
H     1.586951   -1.254470    1.069632   -0.815526    0.270158    0.236825
H     2.223613   -0.199289    0.107516   -0.232626    0.516726   -0.168928
H     1.597895   -1.563753   -0.453957   -0.741656    0.181725   -0.370363
O    -0.005959    1.294684   -0.188705    0.040215    0.000088    0.001333
10
* Frequency(18) 1380.9201
C    -1.385435   -0.727609    0.043155    0.288749    0.117699   -0.001427
C     0.112886    0.100066   -0.011639   -0.330986    0.000663   -0.009680
H    -2.062709    0.174214   -0.051720   -0.235560   -0.533743    0.002017
H    -1.105511   -1.159191    1.089696   -0.744360   -0.265555   -0.300250
H    -1.042325   -1.368560   -0.873097   -0.806751   -0.181353    0.300311
C     1.180873   -0.647032    0.145540    0.288818   -0.117469    0.034541
H     1.579192   -1.251899    1.071885   -0.815526    0.270158    0.236825
H     2.221399   -0.194373    0.105909   -0.232626    0.516726   -0.168928
H     1.590838   -1.562024   -0.457481   -0.741656    0.181725   -0.370363
O    -0.005576    1.294684   -0.188693    0.040215    0.000088    0.001333
10
* Frequency(18) 1380.9201
C    -1.372071   -0.722162    0.043089    0.288749    0.117699   -0.001427
C     0.097568    0.100096   -0.012087   -0.330986    0.000663   -0.009680
H    -2.073611    0.149511   -0.051626   -0.235560   -0.533743    0.002017
H    -1.139962   -1.171482    1.075800   -0.744360   -0.265555   -0.300250
H    -1.079663   -1.376953   -0.859198   -0.806751   -0.181353    0.300311
C     1.194240   -0.652469    0.147138    0.288818   -0.117469    0.034541
H     1.541448   -1.239396    1.082846   -0.815526    0.270158    0.236825
H     2.210633   -0.170458    0.098091   -0.232626    0.516726   -0.168928
H     1.556513   -1.553614   -0.474622   -0.741656    0.181725   -0.370363
O    -0.003715    1.294689   -0.188631    0.040215    0.000088    0.001333
10
* Frequency(18) 1380.9201
C    -1.349539   -0.712978    0.042977    0.288749    0.117699   -0.001427
C     0.071740    0.100148   -0.012842   -0.330986    0.000663   -0.009680
H    -2.091992    0.107861   -0.051469   -0.235560   -0.533743    0.002017
H    -1.198047   -1.192204    1.052370   -0.744360   -0.265555   -0.300250
H    -1.142617   -1.391105   -0.835763   -0.806751   -0.181353    0.300311
C     1.216777   -0.661635    0.149834    0.288818   -0.117469    0.034541
H     1.477809   -1.218314    1.101326   -0.815526    0.270158    0.236825
H     2.192480   -0.130136    0.084909   -0.232626    0.516726   -0.168928
H     1.498639   -1.539433   -0.503522   -0.741656    0.181725   -0.370363
O    -0.000577    1.294695   -0.188527    0.040215    0.000088    0.001333
10
* Frequency(18) 1380.9201
C    -1.320280   -0.701051    0.042833    0.288749    0.117699   -0.001427
C     0.038201    0.100215   -0.013823   -0.330986    0.000663   -0.009680
H    -2.115862    0.053778   -0.051265   -0.235560   -0.533743    0.002017
H    -1.273472   -1.219113    1.021946   -0.744360   -0.265555   -0.300250
H    -1.224365   -1.409481   -0.805333   -0.806751   -0.181353    0.300311
C     1.246043   -0.673538    0.153334    0.288818   -0.117469    0.034541
H     1.395172   -1.190939    1.125323   -0.815526    0.270158    0.236825
H     2.168908   -0.077776    0.067791   -0.232626    0.516726   -0.168928
H     1.423487   -1.521019   -0.541051   -0.741656    0.181725   -0.370363
O     0.003498    1.294704   -0.188392    0.040215    0.000088    0.001333
10
* Frequency(18) 1380.9201
C    -1.287465   -0.687675    0.042671    0.288749    0.117699   -0.001427
C     0.000586    0.100291   -0.014923   -0.330986    0.000663   -0.009680
H    -2.142632   -0.006880   -0.051035   -0.235560   -0.533743    0.002017
H    -1.358065   -1.249292    0.987824   -0.744360   -0.265555   -0.300250
H    -1.316048   -1.430091   -0.771204   -0.806751   -0.181353    0.300311
C     1.278866   -0.686888    0.157259    0.288818   -0.117469    0.034541
H     1.302492   -1.160237    1.152237   -0.815526    0.270158    0.236825
H     2.142472   -0.019053    0.048594   -0.232626    0.516726   -0.168928
H     1.339202   -1.500367   -0.583141   -0.741656    0.181725   -0.370363
O     0.008068    1.294714   -0.188240    0.040215    0.000088    0.001333
