10
* (null), Energy   -1000.0000000
C    -1.287465   -0.687675    0.042671   -0.007562   -0.003418    0.033873
C     0.000586    0.100291   -0.014923    0.017576   -0.075657   -0.516793
H    -2.142632   -0.006880   -0.051035   -0.004767    0.081757    0.623810
H    -1.358065   -1.249292    0.987824    0.703561    0.320585    0.286710
H    -1.316048   -1.430091   -0.771204   -0.774583   -0.269105    0.312330
C     1.278866   -0.686888    0.157259   -0.007268    0.013751    0.031504
H     1.302492   -1.160237    1.152237   -0.773142    0.359177    0.221559
H     2.142472   -0.019053    0.048594   -0.000687    0.100351    0.619836
H     1.339202   -1.500367   -0.583141    0.695971   -0.231915    0.367662
O     0.008068    1.294714   -0.188240    0.007619    0.026306    0.185673
10
* Frequency(9)  489.9066
C    -1.288324   -0.688064    0.046520   -0.007562   -0.003418    0.033873
C     0.002583    0.091693   -0.073654    0.017576   -0.075657   -0.516793
H    -2.143173    0.002412    0.019857   -0.004767    0.081757    0.623810
H    -1.278109   -1.212859    1.020407    0.703561    0.320585    0.286710
H    -1.404075   -1.460674   -0.735710   -0.774583   -0.269105    0.312330
C     1.278040   -0.685325    0.160839   -0.007268    0.013751    0.031504
H     1.214628   -1.119419    1.177416   -0.773142    0.359177    0.221559
H     2.142393   -0.007649    0.119035   -0.000687    0.100351    0.619836
H     1.418295   -1.526723   -0.541358    0.695971   -0.231915    0.367662
O     0.008934    1.297704   -0.167139    0.007619    0.026306    0.185673
10
* Frequency(9)  489.9066
C    -1.289091   -0.688410    0.049953   -0.007562   -0.003418    0.033873
C     0.004364    0.084026   -0.126020    0.017576   -0.075657   -0.516793
H    -2.143657    0.010696    0.083068   -0.004767    0.081757    0.623810
H    -1.206817   -1.180374    1.049459    0.703561    0.320585    0.286710
H    -1.482564   -1.487942   -0.704061   -0.774583   -0.269105    0.312330
C     1.277303   -0.683932    0.164032   -0.007268    0.013751    0.031504
H     1.136286   -1.083023    1.199867   -0.773142    0.359177    0.221559
H     2.142324    0.002520    0.181842   -0.000687    0.100351    0.619836
H     1.488818   -1.550223   -0.504103    0.695971   -0.231915    0.367662
O     0.009706    1.300370   -0.148325    0.007619    0.026306    0.185673
10
* Frequency(9)  489.9066
C    -1.289681   -0.688677    0.052596   -0.007562   -0.003418    0.033873
C     0.005736    0.078123   -0.166348    0.017576   -0.075657   -0.516793
H    -2.144029    0.017076    0.131746   -0.004767    0.081757    0.623810
H    -1.151916   -1.155358    1.071833    0.703561    0.320585    0.286710
H    -1.543007   -1.508941   -0.679689   -0.774583   -0.269105    0.312330
C     1.276736   -0.682859    0.166490   -0.007268    0.013751    0.031504
H     1.075955   -1.054995    1.217156   -0.773142    0.359177    0.221559
H     2.142270    0.010351    0.230210   -0.000687    0.100351    0.619836
H     1.543127   -1.568320   -0.475413    0.695971   -0.231915    0.367662
O     0.010301    1.302422   -0.133836    0.007619    0.026306    0.185673
10
* Frequency(9)  489.9066
C    -1.290031   -0.688835    0.054164   -0.007562   -0.003418    0.033873
C     0.006549    0.074621   -0.190266    0.017576   -0.075657   -0.516793
H    -2.144249    0.020860    0.160617   -0.004767    0.081757    0.623810
H    -1.119354   -1.140520    1.085102    0.703561    0.320585    0.286710
H    -1.578856   -1.521396   -0.665234   -0.774583   -0.269105    0.312330
C     1.276400   -0.682223    0.167948   -0.007268    0.013751    0.031504
H     1.040172   -1.038372    1.227410   -0.773142    0.359177    0.221559
H     2.142239    0.014995    0.258898   -0.000687    0.100351    0.619836
H     1.575338   -1.579053   -0.458397    0.695971   -0.231915    0.367662
O     0.010654    1.303640   -0.125243    0.007619    0.026306    0.185673
10
* Frequency(9)  489.9066
C    -1.290103   -0.688867    0.054486   -0.007562   -0.003418    0.033873
C     0.006717    0.073901   -0.195183    0.017576   -0.075657   -0.516793
H    -2.144294    0.021638    0.166552   -0.004767    0.081757    0.623810
H    -1.112660   -1.137470    1.087830    0.703561    0.320585    0.286710
H    -1.586226   -1.523956   -0.662262   -0.774583   -0.269105    0.312330
C     1.276331   -0.682092    0.168248   -0.007268    0.013751    0.031504
H     1.032816   -1.034955    1.229518   -0.773142    0.359177    0.221559
H     2.142232    0.015950    0.264795   -0.000687    0.100351    0.619836
H     1.581959   -1.581260   -0.454899    0.695971   -0.231915    0.367662
O     0.010726    1.303890   -0.123477    0.007619    0.026306    0.185673
10
* Frequency(9)  489.9066
C    -1.289889   -0.688771    0.053528   -0.007562   -0.003418    0.033873
C     0.006219    0.076041   -0.180566    0.017576   -0.075657   -0.516793
H    -2.144160    0.019325    0.148909   -0.004767    0.081757    0.623810
H    -1.132559   -1.146537    1.079721    0.703561    0.320585    0.286710
H    -1.564318   -1.516345   -0.671096   -0.774583   -0.269105    0.312330
C     1.276536   -0.682481    0.167357   -0.007268    0.013751    0.031504
H     1.054684   -1.045114    1.223251   -0.773142    0.359177    0.221559
H     2.142251    0.013112    0.247264   -0.000687    0.100351    0.619836
H     1.562275   -1.574700   -0.465298    0.695971   -0.231915    0.367662
O     0.010511    1.303146   -0.128728    0.007619    0.026306    0.185673
10
* Frequency(9)  489.9066
C    -1.289412   -0.688555    0.051393   -0.007562   -0.003418    0.033873
C     0.005112    0.080809   -0.147999    0.017576   -0.075657   -0.516793
H    -2.143859    0.014173    0.109598   -0.004767    0.081757    0.623810
H    -1.176896   -1.166740    1.061653    0.703561    0.320585    0.286710
H    -1.515506   -1.499387   -0.690778   -0.774583   -0.269105    0.312330
C     1.276994   -0.683347    0.165371   -0.007268    0.013751    0.031504
H     1.103405   -1.067748    1.209289   -0.773142    0.359177    0.221559
H     2.142295    0.006788    0.208203   -0.000687    0.100351    0.619836
H     1.518416   -1.560086   -0.488467    0.695971   -0.231915    0.367662
O     0.010030    1.301488   -0.140429    0.007619    0.026306    0.185673
10
* Frequency(9)  489.9066
C    -1.288725   -0.688245    0.048313   -0.007562   -0.003418    0.033873
C     0.003514    0.087688   -0.101011    0.017576   -0.075657   -0.516793
H    -2.143426    0.006740    0.052880   -0.004767    0.081757    0.623810
H    -1.240865   -1.195888    1.035585    0.703561    0.320585    0.286710
H    -1.445079   -1.474919   -0.719176   -0.774583   -0.269105    0.312330
C     1.277655   -0.684597    0.162507   -0.007268    0.013751    0.031504
H     1.173701   -1.100405    1.189145   -0.773142    0.359177    0.221559
H     2.142357   -0.002336    0.151847   -0.000687    0.100351    0.619836
H     1.455138   -1.539000   -0.521895    0.695971   -0.231915    0.367662
O     0.009338    1.299096   -0.157311    0.007619    0.026306    0.185673
10
* Frequency(9)  489.9066
C    -1.287901   -0.687872    0.044622   -0.007562   -0.003418    0.033873
C     0.001599    0.095932   -0.044694    0.017576   -0.075657   -0.516793
H    -2.142906   -0.002170   -0.015099   -0.004767    0.081757    0.623810
H    -1.317534   -1.230823    1.004341    0.703561    0.320585    0.286710
H    -1.360670   -1.445594   -0.753211   -0.774583   -0.269105    0.312330
C     1.278447   -0.686096    0.159074   -0.007268    0.013751    0.031504
H     1.257953   -1.139546    1.165001   -0.773142    0.359177    0.221559
H     2.142432   -0.013272    0.084301   -0.000687    0.100351    0.619836
H     1.379295   -1.513727   -0.561961    0.695971   -0.231915    0.367662
O     0.008507    1.296230   -0.177544    0.007619    0.026306    0.185673
10
* Frequency(9)  489.9066
C    -1.287029   -0.687478    0.040719   -0.007562   -0.003418    0.033873
C    -0.000426    0.104649    0.014849    0.017576   -0.075657   -0.516793
H    -2.142357   -0.011589   -0.086972   -0.004767    0.081757    0.623810
H    -1.398596   -1.267760    0.971307    0.703561    0.320585    0.286710
H    -1.271426   -1.414589   -0.789197   -0.774583   -0.269105    0.312330
C     1.279285   -0.687680    0.155444   -0.007268    0.013751    0.031504
H     1.347031   -1.180929    1.139474   -0.773142    0.359177    0.221559
H     2.142511   -0.024834    0.012886   -0.000687    0.100351    0.619836
H     1.299108   -1.487007   -0.604321    0.695971   -0.231915    0.367662
O     0.007629    1.293199   -0.198937    0.007619    0.026306    0.185673
10
* Frequency(9)  489.9066
C    -1.286205   -0.687106    0.037028   -0.007562   -0.003418    0.033873
C    -0.002342    0.112894    0.071165    0.017576   -0.075657   -0.516793
H    -2.141838   -0.020499   -0.154951   -0.004767    0.081757    0.623810
H    -1.475265   -1.302695    0.940064    0.703561    0.320585    0.286710
H    -1.187017   -1.385263   -0.823233   -0.774583   -0.269105    0.312330
C     1.280077   -0.689179    0.152011   -0.007268    0.013751    0.031504
H     1.431283   -1.220070    1.115330   -0.773142    0.359177    0.221559
H     2.142586   -0.035770   -0.054660   -0.000687    0.100351    0.619836
H     1.223266   -1.461734   -0.644387    0.695971   -0.231915    0.367662
O     0.006799    1.290332   -0.219170    0.007619    0.026306    0.185673
10
* Frequency(9)  489.9066
C    -1.285518   -0.686795    0.033948   -0.007562   -0.003418    0.033873
C    -0.003940    0.119773    0.118153    0.017576   -0.075657   -0.516793
H    -2.141404   -0.027932   -0.211669   -0.004767    0.081757    0.623810
H    -1.539234   -1.331843    0.913995    0.703561    0.320585    0.286710
H    -1.116590   -1.360796   -0.851630   -0.774583   -0.269105    0.312330
C     1.280737   -0.690429    0.149147   -0.007268    0.013751    0.031504
H     1.501578   -1.252727    1.095185   -0.773142    0.359177    0.221559
H     2.142648   -0.044894   -0.111016   -0.000687    0.100351    0.619836
H     1.159987   -1.440648   -0.677815    0.695971   -0.231915    0.367662
O     0.006106    1.287941   -0.236052    0.007619    0.026306    0.185673
10
* Frequency(9)  489.9066
C    -1.285041   -0.686580    0.031814   -0.007562   -0.003418    0.033873
C    -0.005047    0.124540    0.150720    0.017576   -0.075657   -0.516793
H    -2.141104   -0.033084   -0.250980   -0.004767    0.081757    0.623810
H    -1.583571   -1.352046    0.895928    0.703561    0.320585    0.286710
H    -1.067778   -1.343838   -0.871313   -0.774583   -0.269105    0.312330
C     1.281195   -0.691296    0.147161   -0.007268    0.013751    0.031504
H     1.550300   -1.275361    1.081223   -0.773142    0.359177    0.221559
H     2.142692   -0.051218   -0.150077   -0.000687    0.100351    0.619836
H     1.116129   -1.426033   -0.700984    0.695971   -0.231915    0.367662
O     0.005626    1.286283   -0.247752    0.007619    0.026306    0.185673
10
* Frequency(9)  489.9066
C    -1.284827   -0.686483    0.030855   -0.007562   -0.003418    0.033873
C    -0.005544    0.126680    0.165337    0.017576   -0.075657   -0.516793
H    -2.140969   -0.035397   -0.268623   -0.004767    0.081757    0.623810
H    -1.603470   -1.361113    0.887818    0.703561    0.320585    0.286710
H    -1.045870   -1.336226   -0.880146   -0.774583   -0.269105    0.312330
C     1.281401   -0.691685    0.146270   -0.007268    0.013751    0.031504
H     1.572167   -1.285520    1.074956   -0.773142    0.359177    0.221559
H     2.142711   -0.054056   -0.167608   -0.000687    0.100351    0.619836
H     1.096444   -1.419474   -0.711383    0.695971   -0.231915    0.367662
O     0.005411    1.285539   -0.253004    0.007619    0.026306    0.185673
10
* Frequency(9)  489.9066
C    -1.284899   -0.686516    0.031178   -0.007562   -0.003418    0.033873
C    -0.005377    0.125961    0.160420    0.017576   -0.075657   -0.516793
H    -2.141014   -0.034619   -0.262688   -0.004767    0.081757    0.623810
H    -1.596776   -1.358063    0.890546    0.703561    0.320585    0.286710
H    -1.053239   -1.338787   -0.877175   -0.774583   -0.269105    0.312330
C     1.281332   -0.691554    0.146570   -0.007268    0.013751    0.031504
H     1.564811   -1.282102    1.077064   -0.773142    0.359177    0.221559
H     2.142705   -0.053101   -0.161710   -0.000687    0.100351    0.619836
H     1.103066   -1.421680   -0.707885    0.695971   -0.231915    0.367662
O     0.005483    1.285789   -0.251237    0.007619    0.026306    0.185673
10
* Frequency(9)  489.9066
C    -1.285249   -0.686674    0.032745   -0.007562   -0.003418    0.033873
C    -0.004564    0.122459    0.136502    0.017576   -0.075657   -0.516793
H    -2.141235   -0.030835   -0.233817   -0.004767    0.081757    0.623810
H    -1.564214   -1.343226    0.903816    0.703561    0.320585    0.286710
H    -1.089089   -1.351241   -0.862720   -0.774583   -0.269105    0.312330
C     1.280995   -0.690917    0.148028   -0.007268    0.013751    0.031504
H     1.529029   -1.265479    1.087319   -0.773142    0.359177    0.221559
H     2.142673   -0.048457   -0.133023   -0.000687    0.100351    0.619836
H     1.135277   -1.432414   -0.690869    0.695971   -0.231915    0.367662
O     0.005836    1.287007   -0.242644    0.007619    0.026306    0.185673
10
* Frequency(9)  489.9066
C    -1.285839   -0.686941    0.035389   -0.007562   -0.003418    0.033873
C    -0.003192    0.116555    0.096174    0.017576   -0.075657   -0.516793
H    -2.141607   -0.024455   -0.185139   -0.004767    0.081757    0.623810
H    -1.509313   -1.318209    0.926189    0.703561    0.320585    0.286710
H    -1.149532   -1.372241   -0.838347   -0.774583   -0.269105    0.312330
C     1.280428   -0.689844    0.150486   -0.007268    0.013751    0.031504
H     1.468698   -1.237451    1.104608   -0.773142    0.359177    0.221559
H     2.142619   -0.040626   -0.084655   -0.000687    0.100351    0.619836
H     1.189586   -1.450511   -0.662179    0.695971   -0.231915    0.367662
O     0.006430    1.289059   -0.228155    0.007619    0.026306    0.185673
10
* Frequency(9)  489.9066
C    -1.286606   -0.687287    0.038821   -0.007562   -0.003418    0.033873
C    -0.001411    0.108889    0.043808    0.017576   -0.075657   -0.516793
H    -2.142090   -0.016171   -0.121928   -0.004767    0.081757    0.623810
H    -1.438021   -1.285724    0.955241    0.703561    0.320585    0.286710
H    -1.228021   -1.399509   -0.806699   -0.774583   -0.269105    0.312330
C     1.279692   -0.688451    0.153679   -0.007268    0.013751    0.031504
H     1.390355   -1.201056    1.127058   -0.773142    0.359177    0.221559
H     2.142550   -0.030457   -0.021848   -0.000687    0.100351    0.619836
H     1.260108   -1.474011   -0.624924    0.695971   -0.231915    0.367662
O     0.007202    1.291725   -0.209341    0.007619    0.026306    0.185673
10
* Frequency(9)  489.9066
C    -1.287465   -0.687675    0.042671   -0.007562   -0.003418    0.033873
C     0.000586    0.100291   -0.014923    0.017576   -0.075657   -0.516793
H    -2.142632   -0.006880   -0.051035   -0.004767    0.081757    0.623810
H    -1.358065   -1.249292    0.987824    0.703561    0.320585    0.286710
H    -1.316048   -1.430091   -0.771204   -0.774583   -0.269105    0.312330
C     1.278866   -0.686888    0.157259   -0.007268    0.013751    0.031504
H     1.302492   -1.160237    1.152237   -0.773142    0.359177    0.221559
H     2.142472   -0.019053    0.048594   -0.000687    0.100351    0.619836
H     1.339202   -1.500367   -0.583141    0.695971   -0.231915    0.367662
O     0.008068    1.294714   -0.188240    0.007619    0.026306    0.185673
