10
* (null), Energy   -1000.0000000
C    -1.287465   -0.687675    0.042671    0.494294    0.233214    0.009693
C     0.000586    0.100291   -0.014923   -0.001425   -0.254961    0.038091
H    -2.142632   -0.006880   -0.051035    0.849374    0.635290   -0.109763
H    -1.358065   -1.249292    0.987824    0.277862    0.236983   -0.020439
H    -1.316048   -1.430091   -0.771204    0.471077    0.346768   -0.079415
C     1.278866   -0.686888    0.157259   -0.491421    0.227162   -0.077218
H     1.302492   -1.160237    1.152237   -0.469265    0.362501   -0.024479
H     2.142472   -0.019053    0.048594   -0.839436    0.648899   -0.078233
H     1.339202   -1.500367   -0.583141   -0.276954    0.235423   -0.048064
O     0.008068    1.294714   -0.188240   -0.001885   -0.309571    0.044804
10
* Frequency(11)  811.7991
C    -1.231291   -0.661172    0.043772    0.494294    0.233214    0.009693
C     0.000424    0.071316   -0.010594   -0.001425   -0.254961    0.038091
H    -2.046105    0.065318   -0.063509    0.849374    0.635290   -0.109763
H    -1.326488   -1.222360    0.985501    0.277862    0.236983   -0.020439
H    -1.262512   -1.390683   -0.780229    0.471077    0.346768   -0.079415
C     1.223018   -0.661072    0.148484   -0.491421    0.227162   -0.077218
H     1.249162   -1.119041    1.149455   -0.469265    0.362501   -0.024479
H     2.047074    0.054691    0.039703   -0.839436    0.648899   -0.078233
H     1.307727   -1.473612   -0.588603   -0.276954    0.235423   -0.048064
O     0.007854    1.259533   -0.183149   -0.001885   -0.309571    0.044804
10
* Frequency(11)  811.7991
C    -1.181204   -0.637540    0.044754    0.494294    0.233214    0.009693
C     0.000280    0.045481   -0.006734   -0.001425   -0.254961    0.038091
H    -1.960038    0.129692   -0.074632    0.849374    0.635290   -0.109763
H    -1.298332   -1.198346    0.983430    0.277862    0.236983   -0.020439
H    -1.214778   -1.355545   -0.788276    0.471077    0.346768   -0.079415
C     1.173223   -0.638054    0.140659   -0.491421    0.227162   -0.077218
H     1.201612   -1.082309    1.146975   -0.469265    0.362501   -0.024479
H     1.962014    0.120444    0.031775   -0.839436    0.648899   -0.078233
H     1.279664   -1.449757   -0.593474   -0.276954    0.235423   -0.048064
O     0.007663    1.228165   -0.178609   -0.001885   -0.309571    0.044804
10
* Frequency(11)  811.7991
C    -1.142633   -0.619342    0.045511    0.494294    0.233214    0.009693
C     0.000169    0.025585   -0.003762   -0.001425   -0.254961    0.038091
H    -1.893758    0.179266   -0.083197    0.849374    0.635290   -0.109763
H    -1.276649   -1.179854    0.981835    0.277862    0.236983   -0.020439
H    -1.178018   -1.328485   -0.794474    0.471077    0.346768   -0.079415
C     1.134875   -0.620328    0.134633   -0.491421    0.227162   -0.077218
H     1.164993   -1.054022    1.145065   -0.469265    0.362501   -0.024479
H     1.896510    0.171080    0.025671   -0.839436    0.648899   -0.078233
H     1.258052   -1.431386   -0.597224   -0.276954    0.235423   -0.048064
O     0.007516    1.204008   -0.175112   -0.001885   -0.309571    0.044804
10
* Frequency(11)  811.7991
C    -1.119756   -0.608548    0.045959    0.494294    0.233214    0.009693
C     0.000103    0.013785   -0.001999   -0.001425   -0.254961    0.038091
H    -1.854448    0.208668   -0.088277    0.849374    0.635290   -0.109763
H    -1.263789   -1.168886    0.980889    0.277862    0.236983   -0.020439
H    -1.156216   -1.312436   -0.798149    0.471077    0.346768   -0.079415
C     1.112132   -0.609814    0.131060   -0.491421    0.227162   -0.077218
H     1.143275   -1.037244    1.143932   -0.469265    0.362501   -0.024479
H     1.857659    0.201112    0.022050   -0.839436    0.648899   -0.078233
H     1.245234   -1.420490   -0.599449   -0.276954    0.235423   -0.048064
O     0.007429    1.189680   -0.173039   -0.001885   -0.309571    0.044804
10
* Frequency(11)  811.7991
C    -1.115053   -0.606329    0.046052    0.494294    0.233214    0.009693
C     0.000089    0.011359   -0.001637   -0.001425   -0.254961    0.038091
H    -1.846366    0.214712   -0.089321    0.849374    0.635290   -0.109763
H    -1.261146   -1.166631    0.980695    0.277862    0.236983   -0.020439
H    -1.151734   -1.309137   -0.798905    0.471077    0.346768   -0.079415
C     1.107456   -0.607653    0.130325   -0.491421    0.227162   -0.077218
H     1.138810   -1.033795    1.143699   -0.469265    0.362501   -0.024479
H     1.849672    0.207286    0.021305   -0.839436    0.648899   -0.078233
H     1.242599   -1.418250   -0.599906   -0.276954    0.235423   -0.048064
O     0.007411    1.186735   -0.172612   -0.001885   -0.309571    0.044804
10
* Frequency(11)  811.7991
C    -1.129033   -0.612926    0.045777    0.494294    0.233214    0.009693
C     0.000129    0.018570   -0.002714   -0.001425   -0.254961    0.038091
H    -1.870390    0.196744   -0.086217    0.849374    0.635290   -0.109763
H    -1.269005   -1.173334    0.981273    0.277862    0.236983   -0.020439
H    -1.165058   -1.318945   -0.796658    0.471077    0.346768   -0.079415
C     1.121355   -0.614078    0.132509   -0.491421    0.227162   -0.077218
H     1.152083   -1.044048    1.144391   -0.469265    0.362501   -0.024479
H     1.873415    0.188932    0.023518   -0.839436    0.648899   -0.078233
H     1.250432   -1.424909   -0.598547   -0.276954    0.235423   -0.048064
O     0.007464    1.195491   -0.173880   -0.001885   -0.309571    0.044804
10
* Frequency(11)  811.7991
C    -1.160183   -0.627622    0.045167    0.494294    0.233214    0.009693
C     0.000219    0.034637   -0.005114   -0.001425   -0.254961    0.038091
H    -1.923915    0.156710   -0.079300    0.849374    0.635290   -0.109763
H    -1.286515   -1.188268    0.982561    0.277862    0.236983   -0.020439
H    -1.194744   -1.340797   -0.791654    0.471077    0.346768   -0.079415
C     1.152323   -0.628393    0.137375   -0.491421    0.227162   -0.077218
H     1.181655   -1.066892    1.145934   -0.469265    0.362501   -0.024479
H     1.926314    0.148041    0.028448   -0.839436    0.648899   -0.078233
H     1.267885   -1.439745   -0.595518   -0.276954    0.235423   -0.048064
O     0.007583    1.214999   -0.176703   -0.001885   -0.309571    0.044804
10
* Frequency(11)  811.7991
C    -1.205125   -0.648826    0.044285    0.494294    0.233214    0.009693
C     0.000349    0.057819   -0.008578   -0.001425   -0.254961    0.038091
H    -2.001142    0.098948   -0.069320    0.849374    0.635290   -0.109763
H    -1.311778   -1.209815    0.984419    0.277862    0.236983   -0.020439
H    -1.237575   -1.372326   -0.784433    0.471077    0.346768   -0.079415
C     1.197004   -0.649047    0.144396   -0.491421    0.227162   -0.077218
H     1.224321   -1.099851    1.148159   -0.469265    0.362501   -0.024479
H     2.002637    0.089042    0.035561   -0.839436    0.648899   -0.078233
H     1.293066   -1.461150   -0.591148   -0.276954    0.235423   -0.048064
O     0.007754    1.243146   -0.180777   -0.001885   -0.309571    0.044804
10
* Frequency(11)  811.7991
C    -1.258990   -0.674240    0.043229    0.494294    0.233214    0.009693
C     0.000504    0.085603   -0.012729   -0.001425   -0.254961    0.038091
H    -2.093701    0.029718   -0.057359    0.849374    0.635290   -0.109763
H    -1.342058   -1.235640    0.986647    0.277862    0.236983   -0.020439
H    -1.288910   -1.410115   -0.775779    0.471077    0.346768   -0.079415
C     1.250556   -0.673802    0.152811   -0.491421    0.227162   -0.077218
H     1.275458   -1.139354    1.150827   -0.469265    0.362501   -0.024479
H     2.094113    0.018329    0.044087   -0.839436    0.648899   -0.078233
H     1.323247   -1.486805   -0.585910   -0.276954    0.235423   -0.048064
O     0.007960    1.276881   -0.185659   -0.001885   -0.309571    0.044804
10
* Frequency(11)  811.7991
C    -1.315940   -0.701110    0.042112    0.494294    0.233214    0.009693
C     0.000668    0.114979   -0.017117   -0.001425   -0.254961    0.038091
H    -2.191563   -0.043477   -0.044712    0.849374    0.635290   -0.109763
H    -1.374072   -1.262944    0.989002    0.277862    0.236983   -0.020439
H    -1.343186   -1.450068   -0.766629    0.471077    0.346768   -0.079415
C     1.307176   -0.699975    0.161707   -0.491421    0.227162   -0.077218
H     1.329525   -1.181120    1.153647   -0.469265    0.362501   -0.024479
H     2.190830   -0.056435    0.053100   -0.839436    0.648899   -0.078233
H     1.355156   -1.513929   -0.580372   -0.276954    0.235423   -0.048064
O     0.008177    1.312548   -0.190821   -0.001885   -0.309571    0.044804
10
* Frequency(11)  811.7991
C    -1.369805   -0.726524    0.041056    0.494294    0.233214    0.009693
C     0.000823    0.142763   -0.021268   -0.001425   -0.254961    0.038091
H    -2.284122   -0.112707   -0.032751    0.849374    0.635290   -0.109763
H    -1.404352   -1.288769    0.991229    0.277862    0.236983   -0.020439
H    -1.394521   -1.487857   -0.757975    0.471077    0.346768   -0.079415
C     1.360728   -0.724729    0.170122   -0.491421    0.227162   -0.077218
H     1.380663   -1.220623    1.156315   -0.469265    0.362501   -0.024479
H     2.282306   -0.127148    0.061626   -0.839436    0.648899   -0.078233
H     1.385337   -1.539584   -0.575134   -0.276954    0.235423   -0.048064
O     0.008382    1.346283   -0.195704   -0.001885   -0.309571    0.044804
10
* Frequency(11)  811.7991
C    -1.414747   -0.747729    0.040175    0.494294    0.233214    0.009693
C     0.000953    0.165944   -0.024731   -0.001425   -0.254961    0.038091
H    -2.361348   -0.170469   -0.022771    0.849374    0.635290   -0.109763
H    -1.429615   -1.310315    0.993087    0.277862    0.236983   -0.020439
H    -1.437352   -1.519385   -0.750755    0.471077    0.346768   -0.079415
C     1.405408   -0.745383    0.177143   -0.491421    0.227162   -0.077218
H     1.423329   -1.253582    1.158541   -0.469265    0.362501   -0.024479
H     2.358629   -0.186147    0.068739   -0.839436    0.648899   -0.078233
H     1.410518   -1.560989   -0.570764   -0.276954    0.235423   -0.048064
O     0.008554    1.374430   -0.199777   -0.001885   -0.309571    0.044804
10
* Frequency(11)  811.7991
C    -1.445897   -0.762425    0.039564    0.494294    0.233214    0.009693
C     0.001043    0.182011   -0.027132   -0.001425   -0.254961    0.038091
H    -2.414874   -0.210503   -0.015854    0.849374    0.635290   -0.109763
H    -1.447125   -1.325249    0.994375    0.277862    0.236983   -0.020439
H    -1.467038   -1.541238   -0.745750    0.471077    0.346768   -0.079415
C     1.436376   -0.759698    0.182009   -0.491421    0.227162   -0.077218
H     1.452901   -1.276426    1.160083   -0.469265    0.362501   -0.024479
H     2.411528   -0.227038    0.073669   -0.839436    0.648899   -0.078233
H     1.427971   -1.575825   -0.567735   -0.276954    0.235423   -0.048064
O     0.008672    1.393938   -0.202601   -0.001885   -0.309571    0.044804
10
* Frequency(11)  811.7991
C    -1.459877   -0.769021    0.039290    0.494294    0.233214    0.009693
C     0.001083    0.189223   -0.028209   -0.001425   -0.254961    0.038091
H    -2.438897   -0.228472   -0.012750    0.849374    0.635290   -0.109763
H    -1.454984   -1.331952    0.994953    0.277862    0.236983   -0.020439
H    -1.480362   -1.551046   -0.743504    0.471077    0.346768   -0.079415
C     1.450276   -0.766123    0.184193   -0.491421    0.227162   -0.077218
H     1.466173   -1.286679    1.160775   -0.469265    0.362501   -0.024479
H     2.435271   -0.245392    0.075882   -0.839436    0.648899   -0.078233
H     1.435805   -1.582483   -0.566376   -0.276954    0.235423   -0.048064
O     0.008726    1.402694   -0.203868   -0.001885   -0.309571    0.044804
10
* Frequency(11)  811.7991
C    -1.455174   -0.766802    0.039382    0.494294    0.233214    0.009693
C     0.001070    0.186797   -0.027847   -0.001425   -0.254961    0.038091
H    -2.430816   -0.222427   -0.013794    0.849374    0.635290   -0.109763
H    -1.452341   -1.329697    0.994759    0.277862    0.236983   -0.020439
H    -1.475880   -1.547746   -0.744259    0.471077    0.346768   -0.079415
C     1.445600   -0.763962    0.183458   -0.491421    0.227162   -0.077218
H     1.461709   -1.283230    1.160543   -0.469265    0.362501   -0.024479
H     2.427284   -0.239218    0.075137   -0.839436    0.648899   -0.078233
H     1.433170   -1.580243   -0.566833   -0.276954    0.235423   -0.048064
O     0.008708    1.399749   -0.203442   -0.001885   -0.309571    0.044804
10
* Frequency(11)  811.7991
C    -1.432297   -0.756009    0.039831    0.494294    0.233214    0.009693
C     0.001004    0.174997   -0.026084   -0.001425   -0.254961    0.038091
H    -2.391505   -0.193025   -0.018874    0.849374    0.635290   -0.109763
H    -1.439481   -1.318730    0.993813    0.277862    0.236983   -0.020439
H    -1.454077   -1.531697   -0.747935    0.471077    0.346768   -0.079415
C     1.422856   -0.753448    0.179885   -0.491421    0.227162   -0.077218
H     1.439990   -1.266453    1.159410   -0.469265    0.362501   -0.024479
H     2.388433   -0.209186    0.071517   -0.839436    0.648899   -0.078233
H     1.420352   -1.569348   -0.569058   -0.276954    0.235423   -0.048064
O     0.008621    1.385421   -0.201368   -0.001885   -0.309571    0.044804
10
* Frequency(11)  811.7991
C    -1.393726   -0.737810    0.040587    0.494294    0.233214    0.009693
C     0.000892    0.155101   -0.023111   -0.001425   -0.254961    0.038091
H    -2.325225   -0.143451   -0.027439    0.849374    0.635290   -0.109763
H    -1.417798   -1.300237    0.992218    0.277862    0.236983   -0.020439
H    -1.417318   -1.504638   -0.754132    0.471077    0.346768   -0.079415
C     1.384509   -0.735722    0.173859   -0.491421    0.227162   -0.077218
H     1.403372   -1.238166    1.157499   -0.469265    0.362501   -0.024479
H     2.322929   -0.158550    0.065412   -0.839436    0.648899   -0.078233
H     1.398740   -1.550977   -0.572808   -0.276954    0.235423   -0.048064
O     0.008474    1.361264   -0.197872   -0.001885   -0.309571    0.044804
10
* Frequency(11)  811.7991
C    -1.343639   -0.714179    0.041569    0.494294    0.233214    0.009693
C     0.000748    0.129266   -0.019252   -0.001425   -0.254961    0.038091
H    -2.239159   -0.079077   -0.038561    0.849374    0.635290   -0.109763
H    -1.389643   -1.276223    0.990147    0.277862    0.236983   -0.020439
H    -1.369583   -1.469500   -0.762179    0.471077    0.346768   -0.079415
C     1.334713   -0.712704    0.166034   -0.491421    0.227162   -0.077218
H     1.355821   -1.201434    1.155019   -0.469265    0.362501   -0.024479
H     2.237869   -0.092797    0.057484   -0.839436    0.648899   -0.078233
H     1.370676   -1.527121   -0.577679   -0.276954    0.235423   -0.048064
O     0.008283    1.329896   -0.193332   -0.001885   -0.309571    0.044804
10
* Frequency(11)  811.7991
C    -1.287465   -0.687675    0.042671    0.494294    0.233214    0.009693
C     0.000586    0.100291   -0.014923   -0.001425   -0.254961    0.038091
H    -2.142632   -0.006880   -0.051035    0.849374    0.635290   -0.109763
H    -1.358065   -1.249292    0.987824    0.277862    0.236983   -0.020439
H    -1.316048   -1.430091   -0.771204    0.471077    0.346768   -0.079415
C     1.278866   -0.686888    0.157259   -0.491421    0.227162   -0.077218
H     1.302492   -1.160237    1.152237   -0.469265    0.362501   -0.024479
H     2.142472   -0.019053    0.048594   -0.839436    0.648899   -0.078233
H     1.339202   -1.500367   -0.583141   -0.276954    0.235423   -0.048064
O     0.008068    1.294714   -0.188240   -0.001885   -0.309571    0.044804
