3
* (null), Energy   -1000.0000000
O    -0.047209    0.044815   -0.014273    0.069953   -0.066323    0.021123
H     0.916328    0.162418   -0.051727   -1.385069   -0.266894    0.085001
H    -0.167028   -0.873719    0.278263    0.274768    1.319573   -0.420259
3
* Frequency(7) 3678.5226
O    -0.039259    0.037278   -0.011872    0.069953   -0.066323    0.021123
H     0.758922    0.132087   -0.042067   -1.385069   -0.266894    0.085001
H    -0.135802   -0.723757    0.230503    0.274768    1.319573   -0.420259
3
* Frequency(7) 3678.5226
O    -0.032171    0.030557   -0.009732    0.069953   -0.066323    0.021123
H     0.618574    0.105042   -0.033454   -1.385069   -0.266894    0.085001
H    -0.107960   -0.590045    0.187918    0.274768    1.319573   -0.420259
3
* Frequency(7) 3678.5226
O    -0.026712    0.025382   -0.008084    0.069953   -0.066323    0.021123
H     0.510492    0.084216   -0.026821   -1.385069   -0.266894    0.085001
H    -0.086519   -0.487073    0.155124    0.274768    1.319573   -0.420259
3
* Frequency(7) 3678.5226
O    -0.023474    0.022312   -0.007106    0.069953   -0.066323    0.021123
H     0.446388    0.071863   -0.022887   -1.385069   -0.266894    0.085001
H    -0.073802   -0.426001    0.135673    0.274768    1.319573   -0.420259
3
* Frequency(7) 3678.5226
O    -0.022809    0.021681   -0.006905    0.069953   -0.066323    0.021123
H     0.433210    0.069324   -0.022078   -1.385069   -0.266894    0.085001
H    -0.071187   -0.413446    0.131675    0.274768    1.319573   -0.420259
3
* Frequency(7) 3678.5226
O    -0.024787    0.023557   -0.007502    0.069953   -0.066323    0.021123
H     0.472385    0.076873   -0.024483   -1.385069   -0.266894    0.085001
H    -0.078959   -0.450769    0.143561    0.274768    1.319573   -0.420259
3
* Frequency(7) 3678.5226
O    -0.029196    0.027736   -0.008834    0.069953   -0.066323    0.021123
H     0.559668    0.093692   -0.029839   -1.385069   -0.266894    0.085001
H    -0.096274   -0.533925    0.170045    0.274768    1.319573   -0.420259
3
* Frequency(7) 3678.5226
O    -0.035556    0.033767   -0.010754    0.069953   -0.066323    0.021123
H     0.685601    0.117958   -0.037568   -1.385069   -0.266894    0.085001
H    -0.121256   -0.653903    0.208256    0.274768    1.319573   -0.420259
3
* Frequency(7) 3678.5226
O    -0.043179    0.040994   -0.013056    0.069953   -0.066323    0.021123
H     0.836537    0.147043   -0.046830   -1.385069   -0.266894    0.085001
H    -0.151199   -0.797701    0.254053    0.274768    1.319573   -0.420259
3
* Frequency(7) 3678.5226
O    -0.051239    0.048636   -0.015490    0.069953   -0.066323    0.021123
H     0.996119    0.177793   -0.056624   -1.385069   -0.266894    0.085001
H    -0.182857   -0.949737    0.302474    0.274768    1.319573   -0.420259
3
* Frequency(7) 3678.5226
O    -0.058862    0.055863   -0.017791    0.069953   -0.066323    0.021123
H     1.147055    0.206877   -0.065887   -1.385069   -0.266894    0.085001
H    -0.212799   -1.093536    0.348271    0.274768    1.319573   -0.420259
3
* Frequency(7) 3678.5226
O    -0.065222    0.061893   -0.019712    0.069953   -0.066323    0.021123
H     1.272988    0.231144   -0.073615   -1.385069   -0.266894    0.085001
H    -0.237781   -1.213514    0.386482    0.274768    1.319573   -0.420259
3
* Frequency(7) 3678.5226
O    -0.069630    0.066073   -0.021043    0.069953   -0.066323    0.021123
H     1.360271    0.247963   -0.078972   -1.385069   -0.266894    0.085001
H    -0.255096   -1.296670    0.412965    0.274768    1.319573   -0.420259
3
* Frequency(7) 3678.5226
O    -0.071609    0.067949   -0.021640    0.069953   -0.066323    0.021123
H     1.399447    0.255512   -0.081376   -1.385069   -0.266894    0.085001
H    -0.262868   -1.333992    0.424852    0.274768    1.319573   -0.420259
3
* Frequency(7) 3678.5226
O    -0.070943    0.067318   -0.021439    0.069953   -0.066323    0.021123
H     1.386268    0.252972   -0.080567   -1.385069   -0.266894    0.085001
H    -0.260254   -1.321437    0.420853    0.274768    1.319573   -0.420259
3
* Frequency(7) 3678.5226
O    -0.067706    0.064248   -0.020462    0.069953   -0.066323    0.021123
H     1.322165    0.240620   -0.076633   -1.385069   -0.266894    0.085001
H    -0.247537   -1.260365    0.401403    0.274768    1.319573   -0.420259
3
* Frequency(7) 3678.5226
O    -0.062247    0.059073   -0.018814    0.069953   -0.066323    0.021123
H     1.214083    0.219793   -0.070000   -1.385069   -0.266894    0.085001
H    -0.226096   -1.157394    0.368608    0.274768    1.319573   -0.420259
3
* Frequency(7) 3678.5226
O    -0.055159    0.052352   -0.016673    0.069953   -0.066323    0.021123
H     1.073734    0.192749   -0.061387   -1.385069   -0.266894    0.085001
H    -0.198254   -1.023682    0.326024    0.274768    1.319573   -0.420259
3
* Frequency(7) 3678.5226
O    -0.047209    0.044815   -0.014273    0.069953   -0.066323    0.021123
H     0.916328    0.162418   -0.051727   -1.385069   -0.266894    0.085001
H    -0.167028   -0.873719    0.278263    0.274768    1.319573   -0.420259
