3
* (null), Energy   -1000.0000000
O    -0.047209    0.044815   -0.014273   -0.100733    0.095619   -0.030453
H     0.916328    0.162418   -0.051727    0.201988   -1.330265    0.423665
H    -0.167028   -0.873719    0.278263    1.396855   -0.187409    0.059686
3
* Frequency(6) 1581.5929
O    -0.058657    0.055681   -0.017734   -0.100733    0.095619   -0.030453
H     0.939283    0.011240   -0.003580    0.201988   -1.330265    0.423665
H    -0.008282   -0.895017    0.285046    1.396855   -0.187409    0.059686
3
* Frequency(6) 1581.5929
O    -0.068864    0.065371   -0.020819   -0.100733    0.095619   -0.030453
H     0.959751   -0.123555    0.039350    0.201988   -1.330265    0.423665
H     0.133260   -0.914007    0.291094    1.396855   -0.187409    0.059686
3
* Frequency(6) 1581.5929
O    -0.076725    0.072832   -0.023196   -0.100733    0.095619   -0.030453
H     0.975512   -0.227361    0.072410    0.201988   -1.330265    0.423665
H     0.242262   -0.928632    0.295752    1.396855   -0.187409    0.059686
3
* Frequency(6) 1581.5929
O    -0.081387    0.077258   -0.024605   -0.100733    0.095619   -0.030453
H     0.984861   -0.288928    0.092018    0.201988   -1.330265    0.423665
H     0.306911   -0.937305    0.298514    1.396855   -0.187409    0.059686
3
* Frequency(6) 1581.5929
O    -0.082345    0.078167   -0.024895   -0.100733    0.095619   -0.030453
H     0.986783   -0.301585    0.096049    0.201988   -1.330265    0.423665
H     0.320202   -0.939088    0.299082    1.396855   -0.187409    0.059686
3
* Frequency(6) 1581.5929
O    -0.079496    0.075463   -0.024033   -0.100733    0.095619   -0.030453
H     0.981070   -0.263959    0.084066    0.201988   -1.330265    0.423665
H     0.280693   -0.933788    0.297394    1.396855   -0.187409    0.059686
3
* Frequency(6) 1581.5929
O    -0.073148    0.069437   -0.022114   -0.100733    0.095619   -0.030453
H     0.968341   -0.180130    0.057368    0.201988   -1.330265    0.423665
H     0.192667   -0.921978    0.293633    1.396855   -0.187409    0.059686
3
* Frequency(6) 1581.5929
O    -0.063989    0.060743   -0.019346   -0.100733    0.095619   -0.030453
H     0.949976   -0.059180    0.018848    0.201988   -1.330265    0.423665
H     0.065663   -0.904938    0.288206    1.396855   -0.187409    0.059686
3
* Frequency(6) 1581.5929
O    -0.053012    0.050323   -0.016027   -0.100733    0.095619   -0.030453
H     0.927964    0.085784   -0.027321    0.201988   -1.330265    0.423665
H    -0.086558   -0.884515    0.281702    1.396855   -0.187409    0.059686
3
* Frequency(6) 1581.5929
O    -0.041406    0.039306   -0.012518   -0.100733    0.095619   -0.030453
H     0.904692    0.239052   -0.076134    0.201988   -1.330265    0.423665
H    -0.247498   -0.862923    0.274825    1.396855   -0.187409    0.059686
3
* Frequency(6) 1581.5929
O    -0.030429    0.028886   -0.009200   -0.100733    0.095619   -0.030453
H     0.882681    0.384015   -0.122302    0.201988   -1.330265    0.423665
H    -0.399718   -0.842500    0.268321    1.396855   -0.187409    0.059686
3
* Frequency(6) 1581.5929
O    -0.021270    0.020192   -0.006431   -0.100733    0.095619   -0.030453
H     0.864315    0.504965   -0.160822    0.201988   -1.330265    0.423665
H    -0.526722   -0.825461    0.262894    1.396855   -0.187409    0.059686
3
* Frequency(6) 1581.5929
O    -0.014922    0.014167   -0.004512   -0.100733    0.095619   -0.030453
H     0.851587    0.588795   -0.187520    0.201988   -1.330265    0.423665
H    -0.614748   -0.813651    0.259133    1.396855   -0.187409    0.059686
3
* Frequency(6) 1581.5929
O    -0.012073    0.011462   -0.003651   -0.100733    0.095619   -0.030453
H     0.845874    0.626420   -0.199503    0.201988   -1.330265    0.423665
H    -0.654257   -0.808350    0.257445    1.396855   -0.187409    0.059686
3
* Frequency(6) 1581.5929
O    -0.013031    0.012372   -0.003940   -0.100733    0.095619   -0.030453
H     0.847796    0.613763   -0.195472    0.201988   -1.330265    0.423665
H    -0.640967   -0.810133    0.258012    1.396855   -0.187409    0.059686
3
* Frequency(6) 1581.5929
O    -0.017693    0.016798   -0.005350   -0.100733    0.095619   -0.030453
H     0.857144    0.552196   -0.175864    0.201988   -1.330265    0.423665
H    -0.576318   -0.818807    0.260775    1.396855   -0.187409    0.059686
3
* Frequency(6) 1581.5929
O    -0.025554    0.024259   -0.007726   -0.100733    0.095619   -0.030453
H     0.872906    0.448391   -0.142804    0.201988   -1.330265    0.423665
H    -0.467316   -0.833431    0.265432    1.396855   -0.187409    0.059686
3
* Frequency(6) 1581.5929
O    -0.035761    0.033948   -0.010812   -0.100733    0.095619   -0.030453
H     0.893373    0.313596   -0.099874    0.201988   -1.330265    0.423665
H    -0.325773   -0.852421    0.271480    1.396855   -0.187409    0.059686
3
* Frequency(6) 1581.5929
O    -0.047209    0.044815   -0.014273   -0.100733    0.095619   -0.030453
H     0.916328    0.162418   -0.051727    0.201988   -1.330265    0.423665
H    -0.167028   -0.873719    0.278263    1.396855   -0.187409    0.059686
