3
* (null), Energy   -1000.0000000
O    -0.044681    0.042415   -0.013508   -0.100659    0.095553   -0.030432
H     0.887355    0.172939   -0.055078    0.200617   -1.330459    0.423726
H    -0.178177   -0.846154    0.269484    1.397043   -0.186157    0.059287
3
* Frequency(6) 1734.5121
O    -0.056120    0.053274   -0.016967   -0.100659    0.095553   -0.030432
H     0.910154    0.021739   -0.006924    0.200617   -1.330459    0.423726
H    -0.019410   -0.867310    0.276222    1.397043   -0.186157    0.059287
3
* Frequency(6) 1734.5121
O    -0.066320    0.062957   -0.020050   -0.100659    0.095553   -0.030432
H     0.930483   -0.113075    0.036012    0.200617   -1.330459    0.423726
H     0.122152   -0.886173    0.282230    1.397043   -0.186157    0.059287
3
* Frequency(6) 1734.5121
O    -0.074175    0.070413   -0.022425   -0.100659    0.095553   -0.030432
H     0.946138   -0.216896    0.069077    0.200617   -1.330459    0.423726
H     0.231168   -0.900699    0.286856    1.397043   -0.186157    0.059287
3
* Frequency(6) 1734.5121
O    -0.078834    0.074835   -0.023834   -0.100659    0.095553   -0.030432
H     0.955422   -0.278472    0.088688    0.200617   -1.330459    0.423726
H     0.295826   -0.909315    0.289600    1.397043   -0.186157    0.059287
3
* Frequency(6) 1734.5121
O    -0.079791    0.075744   -0.024123   -0.100659    0.095553   -0.030432
H     0.957331   -0.291131    0.092720    0.200617   -1.330459    0.423726
H     0.309118   -0.911086    0.290164    1.397043   -0.186157    0.059287
3
* Frequency(6) 1734.5121
O    -0.076944    0.073042   -0.023262   -0.100659    0.095553   -0.030432
H     0.951657   -0.253500    0.080735    0.200617   -1.330459    0.423726
H     0.269604   -0.905821    0.288487    1.397043   -0.186157    0.059287
3
* Frequency(6) 1734.5121
O    -0.070601    0.067020   -0.021345   -0.100659    0.095553   -0.030432
H     0.939015   -0.169658    0.054033    0.200617   -1.330459    0.423726
H     0.181566   -0.894090    0.284751    1.397043   -0.186157    0.059287
3
* Frequency(6) 1734.5121
O    -0.061449    0.058333   -0.018578   -0.100659    0.095553   -0.030432
H     0.920774   -0.048691    0.015507    0.200617   -1.330459    0.423726
H     0.054545   -0.877164    0.279360    1.397043   -0.186157    0.059287
3
* Frequency(6) 1734.5121
O    -0.050480    0.047920   -0.015262   -0.100659    0.095553   -0.030432
H     0.898912    0.096294   -0.030668    0.200617   -1.330459    0.423726
H    -0.097696   -0.856878    0.272900    1.397043   -0.186157    0.059287
3
* Frequency(6) 1734.5121
O    -0.038882    0.036911   -0.011755   -0.100659    0.095553   -0.030432
H     0.875798    0.249584   -0.079488    0.200617   -1.330459    0.423726
H    -0.258658   -0.835430    0.266069    1.397043   -0.186157    0.059287
3
* Frequency(6) 1734.5121
O    -0.027913    0.026498   -0.008439   -0.100659    0.095553   -0.030432
H     0.853936    0.394569   -0.125663    0.200617   -1.330459    0.423726
H    -0.410899   -0.815144    0.259608    1.397043   -0.186157    0.059287
3
* Frequency(6) 1734.5121
O    -0.018761    0.017810   -0.005672   -0.100659    0.095553   -0.030432
H     0.835695    0.515537   -0.164189    0.200617   -1.330459    0.423726
H    -0.537920   -0.798218    0.254218    1.397043   -0.186157    0.059287
3
* Frequency(6) 1734.5121
O    -0.012418    0.011789   -0.003754   -0.100659    0.095553   -0.030432
H     0.823053    0.599379   -0.190891    0.200617   -1.330459    0.423726
H    -0.625958   -0.786487    0.250481    1.397043   -0.186157    0.059287
3
* Frequency(6) 1734.5121
O    -0.009571    0.009086   -0.002894   -0.100659    0.095553   -0.030432
H     0.817379    0.637009   -0.202876    0.200617   -1.330459    0.423726
H    -0.665472   -0.781221    0.248805    1.397043   -0.186157    0.059287
3
* Frequency(6) 1734.5121
O    -0.010528    0.009995   -0.003183   -0.100659    0.095553   -0.030432
H     0.819287    0.624351   -0.198844    0.200617   -1.330459    0.423726
H    -0.652180   -0.782993    0.249369    1.397043   -0.186157    0.059287
3
* Frequency(6) 1734.5121
O    -0.015187    0.014417   -0.004592   -0.100659    0.095553   -0.030432
H     0.828572    0.562775   -0.179233    0.200617   -1.330459    0.423726
H    -0.587522   -0.791608    0.252113    1.397043   -0.186157    0.059287
3
* Frequency(6) 1734.5121
O    -0.023042    0.021874   -0.006966   -0.100659    0.095553   -0.030432
H     0.844227    0.458954   -0.146168    0.200617   -1.330459    0.423726
H    -0.478506   -0.806135    0.256739    1.397043   -0.186157    0.059287
3
* Frequency(6) 1734.5121
O    -0.033242    0.031556   -0.010050   -0.100659    0.095553   -0.030432
H     0.864556    0.324139   -0.103232    0.200617   -1.330459    0.423726
H    -0.336944   -0.824998    0.262747    1.397043   -0.186157    0.059287
3
* Frequency(6) 1734.5121
O    -0.044681    0.042415   -0.013508   -0.100659    0.095553   -0.030432
H     0.887355    0.172939   -0.055078    0.200617   -1.330459    0.423726
H    -0.178177   -0.846154    0.269484    1.397043   -0.186157    0.059287
