3
* (null), Energy   -1000.0000000
O    -0.044681    0.042415   -0.013508    0.100548    0.096120   -0.030613
H     0.887355    0.172939   -0.055078   -1.396117   -0.195551    0.062279
H    -0.178177   -0.846154    0.269484   -0.199789   -1.330073    0.423604
3
* Frequency(8) 4212.0483
O    -0.033254    0.053339   -0.016987    0.100548    0.096120   -0.030613
H     0.728693    0.150716   -0.048000   -1.396117   -0.195551    0.062279
H    -0.200882   -0.997310    0.317625   -0.199789   -1.330073    0.423604
3
* Frequency(8) 4212.0483
O    -0.023066    0.063079   -0.020089    0.100548    0.096120   -0.030613
H     0.587225    0.130901   -0.041689   -1.396117   -0.195551    0.062279
H    -0.221127   -1.132086    0.360548   -0.199789   -1.330073    0.423604
3
* Frequency(8) 4212.0483
O    -0.015219    0.070579   -0.022478    0.100548    0.096120   -0.030613
H     0.478281    0.115641   -0.036830   -1.396117   -0.195551    0.062279
H    -0.236717   -1.235876    0.393604   -0.199789   -1.330073    0.423604
3
* Frequency(8) 4212.0483
O    -0.010566    0.075028   -0.023895    0.100548    0.096120   -0.030613
H     0.413666    0.106591   -0.033947   -1.396117   -0.195551    0.062279
H    -0.245963   -1.297435    0.413209   -0.199789   -1.330073    0.423604
3
* Frequency(8) 4212.0483
O    -0.009609    0.075942   -0.024186    0.100548    0.096120   -0.030613
H     0.400383    0.104730   -0.033355   -1.396117   -0.195551    0.062279
H    -0.247864   -1.310090    0.417239   -0.199789   -1.330073    0.423604
3
* Frequency(8) 4212.0483
O    -0.012453    0.073224   -0.023320    0.100548    0.096120   -0.030613
H     0.439870    0.110261   -0.035116   -1.396117   -0.195551    0.062279
H    -0.242214   -1.272470    0.405258   -0.199789   -1.330073    0.423604
3
* Frequency(8) 4212.0483
O    -0.018789    0.067166   -0.021391    0.100548    0.096120   -0.030613
H     0.527850    0.122584   -0.039041   -1.396117   -0.195551    0.062279
H    -0.229623   -1.188652    0.378564   -0.199789   -1.330073    0.423604
3
* Frequency(8) 4212.0483
O    -0.027931    0.058427   -0.018608    0.100548    0.096120   -0.030613
H     0.654787    0.140364   -0.044703   -1.396117   -0.195551    0.062279
H    -0.211458   -1.067720    0.340049   -0.199789   -1.330073    0.423604
3
* Frequency(8) 4212.0483
O    -0.038889    0.047952   -0.015272    0.100548    0.096120   -0.030613
H     0.806927    0.161674   -0.051490   -1.396117   -0.195551    0.062279
H    -0.189687   -0.922777    0.293887   -0.199789   -1.330073    0.423604
3
* Frequency(8) 4212.0483
O    -0.050473    0.036878   -0.011745    0.100548    0.096120   -0.030613
H     0.967783    0.184205   -0.058666   -1.396117   -0.195551    0.062279
H    -0.166668   -0.769531    0.245081   -0.199789   -1.330073    0.423604
3
* Frequency(8) 4212.0483
O    -0.061431    0.026403   -0.008409    0.100548    0.096120   -0.030613
H     1.119922    0.205514   -0.065452   -1.396117   -0.195551    0.062279
H    -0.144896   -0.624588    0.198920   -0.199789   -1.330073    0.423604
3
* Frequency(8) 4212.0483
O    -0.070573    0.017664   -0.005626    0.100548    0.096120   -0.030613
H     1.246860    0.223294   -0.071115   -1.396117   -0.195551    0.062279
H    -0.126731   -0.503655    0.160405   -0.199789   -1.330073    0.423604
3
* Frequency(8) 4212.0483
O    -0.076909    0.011607   -0.003696    0.100548    0.096120   -0.030613
H     1.334839    0.235617   -0.075040   -1.396117   -0.195551    0.062279
H    -0.114141   -0.419838    0.133711   -0.199789   -1.330073    0.423604
3
* Frequency(8) 4212.0483
O    -0.079753    0.008888   -0.002831    0.100548    0.096120   -0.030613
H     1.374327    0.241148   -0.076801   -1.396117   -0.195551    0.062279
H    -0.108490   -0.382218    0.121729   -0.199789   -1.330073    0.423604
3
* Frequency(8) 4212.0483
O    -0.078796    0.009803   -0.003122    0.100548    0.096120   -0.030613
H     1.361044    0.239288   -0.076209   -1.396117   -0.195551    0.062279
H    -0.110391   -0.394873    0.125760   -0.199789   -1.330073    0.423604
3
* Frequency(8) 4212.0483
O    -0.074143    0.014251   -0.004539    0.100548    0.096120   -0.030613
H     1.296429    0.230237   -0.073326   -1.396117   -0.195551    0.062279
H    -0.119637   -0.456431    0.145365   -0.199789   -1.330073    0.423604
3
* Frequency(8) 4212.0483
O    -0.066296    0.021752   -0.006928    0.100548    0.096120   -0.030613
H     1.187485    0.214978   -0.068466   -1.396117   -0.195551    0.062279
H    -0.135228   -0.560222    0.178420   -0.199789   -1.330073    0.423604
3
* Frequency(8) 4212.0483
O    -0.056108    0.031492   -0.010029    0.100548    0.096120   -0.030613
H     1.046016    0.195163   -0.062156   -1.396117   -0.195551    0.062279
H    -0.155472   -0.694998    0.221344   -0.199789   -1.330073    0.423604
3
* Frequency(8) 4212.0483
O    -0.044681    0.042415   -0.013508    0.100548    0.096120   -0.030613
H     0.887355    0.172939   -0.055078   -1.396117   -0.195551    0.062279
H    -0.178177   -0.846154    0.269484   -0.199789   -1.330073    0.423604
