3
* (null), Energy   -1000.0000000
O    -0.044681    0.042415   -0.013508    0.069972   -0.066489    0.021176
H     0.887355    0.172939   -0.055078   -1.384234   -0.265533    0.084567
H    -0.178177   -0.846154    0.269484    0.273629    1.320848   -0.420666
3
* Frequency(7) 4110.1010
O    -0.036729    0.034859   -0.011102    0.069972   -0.066489    0.021176
H     0.730044    0.142763   -0.045467   -1.384234   -0.265533    0.084567
H    -0.147081   -0.696046    0.221678    0.273629    1.320848   -0.420666
3
* Frequency(7) 4110.1010
O    -0.029639    0.028122   -0.008956    0.069972   -0.066489    0.021176
H     0.589780    0.115856   -0.036898   -1.384234   -0.265533    0.084567
H    -0.119354   -0.562205    0.179052    0.273629    1.320848   -0.420666
3
* Frequency(7) 4110.1010
O    -0.024178    0.022933   -0.007304    0.069972   -0.066489    0.021176
H     0.481763    0.095136   -0.030299   -1.384234   -0.265533    0.084567
H    -0.098001   -0.459134    0.146226    0.273629    1.320848   -0.420666
3
* Frequency(7) 4110.1010
O    -0.020940    0.019856   -0.006324    0.069972   -0.066489    0.021176
H     0.417698    0.082847   -0.026385   -1.384234   -0.265533    0.084567
H    -0.085337   -0.398003    0.126757    0.273629    1.320848   -0.420666
3
* Frequency(7) 4110.1010
O    -0.020274    0.019223   -0.006122    0.069972   -0.066489    0.021176
H     0.404528    0.080320   -0.025580   -1.384234   -0.265533    0.084567
H    -0.082734   -0.385436    0.122754    0.273629    1.320848   -0.420666
3
* Frequency(7) 4110.1010
O    -0.022253    0.021104   -0.006721    0.069972   -0.066489    0.021176
H     0.443679    0.087830   -0.027972   -1.384234   -0.265533    0.084567
H    -0.090473   -0.422795    0.134652    0.273629    1.320848   -0.420666
3
* Frequency(7) 4110.1010
O    -0.026663    0.025294   -0.008056    0.069972   -0.066489    0.021176
H     0.530910    0.104564   -0.033302   -1.384234   -0.265533    0.084567
H    -0.107717   -0.506031    0.161161    0.273629    1.320848   -0.420666
3
* Frequency(7) 4110.1010
O    -0.033025    0.031339   -0.009981    0.069972   -0.066489    0.021176
H     0.656767    0.128706   -0.040991   -1.384234   -0.265533    0.084567
H    -0.132595   -0.626125    0.199409    0.273629    1.320848   -0.420666
3
* Frequency(7) 4110.1010
O    -0.040650    0.038585   -0.012289    0.069972   -0.066489    0.021176
H     0.807612    0.157642   -0.050206   -1.384234   -0.265533    0.084567
H    -0.162414   -0.770062    0.245251    0.273629    1.320848   -0.420666
3
* Frequency(7) 4110.1010
O    -0.048712    0.046245   -0.014728    0.069972   -0.066489    0.021176
H     0.967098    0.188236   -0.059950   -1.384234   -0.265533    0.084567
H    -0.193940   -0.922245    0.293718    0.273629    1.320848   -0.420666
3
* Frequency(7) 4110.1010
O    -0.056337    0.053491   -0.017036    0.069972   -0.066489    0.021176
H     1.117943    0.217172   -0.069165   -1.384234   -0.265533    0.084567
H    -0.223759   -1.066183    0.339559    0.273629    1.320848   -0.420666
3
* Frequency(7) 4110.1010
O    -0.062699    0.059536   -0.018961    0.069972   -0.066489    0.021176
H     1.243800    0.241315   -0.076854   -1.384234   -0.265533    0.084567
H    -0.248637   -1.186277    0.377807    0.273629    1.320848   -0.420666
3
* Frequency(7) 4110.1010
O    -0.067109    0.063726   -0.020296    0.069972   -0.066489    0.021176
H     1.331031    0.258048   -0.082183   -1.384234   -0.265533    0.084567
H    -0.265881   -1.269513    0.404316    0.273629    1.320848   -0.420666
3
* Frequency(7) 4110.1010
O    -0.069088    0.065607   -0.020895    0.069972   -0.066489    0.021176
H     1.370182    0.265558   -0.084575   -1.384234   -0.265533    0.084567
H    -0.273620   -1.306872    0.416214    0.273629    1.320848   -0.420666
3
* Frequency(7) 4110.1010
O    -0.068422    0.064974   -0.020693    0.069972   -0.066489    0.021176
H     1.357012    0.263032   -0.083771   -1.384234   -0.265533    0.084567
H    -0.271017   -1.294304    0.412212    0.273629    1.320848   -0.420666
3
* Frequency(7) 4110.1010
O    -0.065184    0.061897   -0.019713    0.069972   -0.066489    0.021176
H     1.292947    0.250742   -0.079857   -1.384234   -0.265533    0.084567
H    -0.258353   -1.233173    0.392743    0.273629    1.320848   -0.420666
3
* Frequency(7) 4110.1010
O    -0.059723    0.056709   -0.018061    0.069972   -0.066489    0.021176
H     1.184930    0.230022   -0.073258   -1.384234   -0.265533    0.084567
H    -0.237000   -1.130102    0.359917    0.273629    1.320848   -0.420666
3
* Frequency(7) 4110.1010
O    -0.052633    0.049971   -0.015915    0.069972   -0.066489    0.021176
H     1.044666    0.203116   -0.064689   -1.384234   -0.265533    0.084567
H    -0.209274   -0.996261    0.317291    0.273629    1.320848   -0.420666
3
* Frequency(7) 4110.1010
O    -0.044681    0.042415   -0.013508    0.069972   -0.066489    0.021176
H     0.887355    0.172939   -0.055078   -1.384234   -0.265533    0.084567
H    -0.178177   -0.846154    0.269484    0.273629    1.320848   -0.420666
