13
* (null), Energy   -1000.0000000
C     1.621188    0.403598    0.009016   -0.007413    0.023514    0.309906
C     1.539018   -0.919147    0.120543    0.001897    0.006021    0.096068
N     0.234586   -1.584887    0.143046   -0.007292    0.017559    0.092249
C    -1.040982   -0.751715    0.035244    0.007873   -0.014870   -0.131666
N    -0.811196    0.577219   -0.071669   -0.006378    0.012133    0.196517
C     0.423111    1.261638   -0.096194    0.014361   -0.051257   -0.618396
O    -2.084970   -1.326745    0.055920    0.000012    0.004476    0.029498
O     0.451027    2.464431   -0.197533   -0.003992    0.014686    0.162583
H     2.382077   -1.607559    0.201521    0.038275   -0.144387   -1.563609
H     0.139969   -2.151905    1.007849   -0.207769   -0.277754   -0.122089
H    -1.647994    1.161186   -0.147295    0.000617   -0.059167   -0.430147
H     2.590366    0.904195   -0.008805    0.017717   -0.061111   -0.699357
H     0.188398   -2.293879   -0.614969    0.205080    0.261706   -0.146119
13
* Frequency(17)  819.2796
C     1.620346    0.406270    0.044235   -0.007413    0.023514    0.309906
C     1.539234   -0.918463    0.131460    0.001897    0.006021    0.096068
N     0.233757   -1.582891    0.153530   -0.007292    0.017559    0.092249
C    -1.040087   -0.753404    0.020281    0.007873   -0.014870   -0.131666
N    -0.811921    0.578598   -0.049336   -0.006378    0.012133    0.196517
C     0.424743    1.255813   -0.166471    0.014361   -0.051257   -0.618396
O    -2.084968   -1.326236    0.059273    0.000012    0.004476    0.029498
O     0.450574    2.466100   -0.179056   -0.003992    0.014686    0.162583
H     2.386427   -1.623968    0.023825    0.038275   -0.144387   -1.563609
H     0.116357   -2.183470    0.993974   -0.207769   -0.277754   -0.122089
H    -1.647924    1.154462   -0.196179    0.000617   -0.059167   -0.430147
H     2.592379    0.897250   -0.088283    0.017717   -0.061111   -0.699357
H     0.211704   -2.264137   -0.631574    0.205080    0.261706   -0.146119
13
* Frequency(17)  819.2796
C     1.619594    0.408653    0.075638   -0.007413    0.023514    0.309906
C     1.539426   -0.917853    0.141195    0.001897    0.006021    0.096068
N     0.233018   -1.581112    0.162877   -0.007292    0.017559    0.092249
C    -1.039290   -0.754911    0.006940    0.007873   -0.014870   -0.131666
N    -0.812567    0.579827   -0.029423   -0.006378    0.012133    0.196517
C     0.426198    1.250619   -0.229133    0.014361   -0.051257   -0.618396
O    -2.084967   -1.325783    0.062262    0.000012    0.004476    0.029498
O     0.450169    2.467588   -0.162582   -0.003992    0.014686    0.162583
H     2.390305   -1.638598   -0.134615    0.038275   -0.144387   -1.563609
H     0.095304   -2.211614    0.981603   -0.207769   -0.277754   -0.122089
H    -1.647862    1.148467   -0.239766    0.000617   -0.059167   -0.430147
H     2.594174    0.891057   -0.159148    0.017717   -0.061111   -0.699357
H     0.232485   -2.237619   -0.646381    0.205080    0.261706   -0.146119
13
* Frequency(17)  819.2796
C     1.619016    0.410488    0.099821   -0.007413    0.023514    0.309906
C     1.539574   -0.917383    0.148692    0.001897    0.006021    0.096068
N     0.232449   -1.579742    0.170076   -0.007292    0.017559    0.092249
C    -1.038675   -0.756072   -0.003335    0.007873   -0.014870   -0.131666
N    -0.813065    0.580774   -0.014088   -0.006378    0.012133    0.196517
C     0.427319    1.246619   -0.277389    0.014361   -0.051257   -0.618396
O    -2.084966   -1.325433    0.064563    0.000012    0.004476    0.029498
O     0.449858    2.468734   -0.149895   -0.003992    0.014686    0.162583
H     2.393292   -1.649865   -0.256630    0.038275   -0.144387   -1.563609
H     0.079091   -2.233289    0.972076   -0.207769   -0.277754   -0.122089
H    -1.647813    1.143850   -0.273332    0.000617   -0.059167   -0.430147
H     2.595557    0.886289   -0.213722    0.017717   -0.061111   -0.699357
H     0.248488   -2.217197   -0.657783    0.205080    0.261706   -0.146119
13
* Frequency(17)  819.2796
C     1.618673    0.411576    0.114164   -0.007413    0.023514    0.309906
C     1.539662   -0.917104    0.153138    0.001897    0.006021    0.096068
N     0.232112   -1.578929    0.174345   -0.007292    0.017559    0.092249
C    -1.038311   -0.756760   -0.009429    0.007873   -0.014870   -0.131666
N    -0.813360    0.581336   -0.004993   -0.006378    0.012133    0.196517
C     0.427984    1.244247   -0.306009    0.014361   -0.051257   -0.618396
O    -2.084966   -1.325226    0.065929    0.000012    0.004476    0.029498
O     0.449673    2.469413   -0.142370   -0.003992    0.014686    0.162583
H     2.395063   -1.656548   -0.328997    0.038275   -0.144387   -1.563609
H     0.069475   -2.246144    0.966425   -0.207769   -0.277754   -0.122089
H    -1.647785    1.141111   -0.293240    0.000617   -0.059167   -0.430147
H     2.596377    0.883460   -0.246089    0.017717   -0.061111   -0.699357
H     0.257979   -2.205084   -0.664545    0.205080    0.261706   -0.146119
13
* Frequency(17)  819.2796
C     1.618602    0.411800    0.117113   -0.007413    0.023514    0.309906
C     1.539680   -0.917047    0.154052    0.001897    0.006021    0.096068
N     0.232043   -1.578762    0.175223   -0.007292    0.017559    0.092249
C    -1.038236   -0.756901   -0.010681    0.007873   -0.014870   -0.131666
N    -0.813421    0.581451   -0.003123   -0.006378    0.012133    0.196517
C     0.428120    1.243759   -0.311893    0.014361   -0.051257   -0.618396
O    -2.084966   -1.325184    0.066209    0.000012    0.004476    0.029498
O     0.449635    2.469553   -0.140823   -0.003992    0.014686    0.162583
H     2.395428   -1.657922   -0.343873    0.038275   -0.144387   -1.563609
H     0.067498   -2.248786    0.965264   -0.207769   -0.277754   -0.122089
H    -1.647779    1.140548   -0.297333    0.000617   -0.059167   -0.430147
H     2.596545    0.882879   -0.252743    0.017717   -0.061111   -0.699357
H     0.259931   -2.202594   -0.665936    0.205080    0.261706   -0.146119
13
* Frequency(17)  819.2796
C     1.618812    0.411135    0.108347   -0.007413    0.023514    0.309906
C     1.539626   -0.917217    0.151335    0.001897    0.006021    0.096068
N     0.232249   -1.579259    0.172614   -0.007292    0.017559    0.092249
C    -1.038459   -0.756481   -0.006957    0.007873   -0.014870   -0.131666
N    -0.813241    0.581108   -0.008681   -0.006378    0.012133    0.196517
C     0.427714    1.245209   -0.294402    0.014361   -0.051257   -0.618396
O    -2.084966   -1.325310    0.065375    0.000012    0.004476    0.029498
O     0.449748    2.469138   -0.145422   -0.003992    0.014686    0.162583
H     2.394345   -1.653838   -0.299648    0.038275   -0.144387   -1.563609
H     0.073375   -2.240930    0.968717   -0.207769   -0.277754   -0.122089
H    -1.647796    1.142222   -0.285166    0.000617   -0.059167   -0.430147
H     2.596044    0.884607   -0.232963    0.017717   -0.061111   -0.699357
H     0.254130   -2.209996   -0.661803    0.205080    0.261706   -0.146119
13
* Frequency(17)  819.2796
C     1.619279    0.409653    0.088818   -0.007413    0.023514    0.309906
C     1.539506   -0.917597    0.145281    0.001897    0.006021    0.096068
N     0.232708   -1.580365    0.166800   -0.007292    0.017559    0.092249
C    -1.038955   -0.755544    0.001340    0.007873   -0.014870   -0.131666
N    -0.812839    0.580343   -0.021065   -0.006378    0.012133    0.196517
C     0.426809    1.248439   -0.255433    0.014361   -0.051257   -0.618396
O    -2.084967   -1.325592    0.063516    0.000012    0.004476    0.029498
O     0.449999    2.468212   -0.155667   -0.003992    0.014686    0.162583
H     2.391933   -1.644739   -0.201114    0.038275   -0.144387   -1.563609
H     0.086468   -2.223427    0.976410   -0.207769   -0.277754   -0.122089
H    -1.647835    1.145950   -0.258060    0.000617   -0.059167   -0.430147
H     2.594928    0.888458   -0.188891    0.017717   -0.061111   -0.699357
H     0.241207   -2.226488   -0.652595    0.205080    0.261706   -0.146119
13
* Frequency(17)  819.2796
C     1.619953    0.407515    0.060641   -0.007413    0.023514    0.309906
C     1.539334   -0.918144    0.136546    0.001897    0.006021    0.096068
N     0.233371   -1.581962    0.158413   -0.007292    0.017559    0.092249
C    -1.039670   -0.754192    0.013311    0.007873   -0.014870   -0.131666
N    -0.812259    0.579240   -0.038933   -0.006378    0.012133    0.196517
C     0.425503    1.253100   -0.199207    0.014361   -0.051257   -0.618396
O    -2.084968   -1.325999    0.060834    0.000012    0.004476    0.029498
O     0.450362    2.466877   -0.170449   -0.003992    0.014686    0.162583
H     2.388453   -1.631611   -0.058948    0.038275   -0.144387   -1.563609
H     0.105358   -2.198173    0.987511   -0.207769   -0.277754   -0.122089
H    -1.647891    1.151330   -0.218950    0.000617   -0.059167   -0.430147
H     2.593317    0.894015   -0.125305    0.017717   -0.061111   -0.699357
H     0.222560   -2.250283   -0.639309    0.205080    0.261706   -0.146119
13
* Frequency(17)  819.2796
C     1.620761    0.404953    0.026869   -0.007413    0.023514    0.309906
C     1.539127   -0.918800    0.126077    0.001897    0.006021    0.096068
N     0.234166   -1.583875    0.148360   -0.007292    0.017559    0.092249
C    -1.040528   -0.752571    0.027659    0.007873   -0.014870   -0.131666
N    -0.811564    0.577918   -0.060348   -0.006378    0.012133    0.196517
C     0.423938    1.258685   -0.131818    0.014361   -0.051257   -0.618396
O    -2.084969   -1.326487    0.057620    0.000012    0.004476    0.029498
O     0.450797    2.465277   -0.188167   -0.003992    0.014686    0.162583
H     2.384282   -1.615877    0.111444    0.038275   -0.144387   -1.563609
H     0.128000   -2.167905    1.000815   -0.207769   -0.277754   -0.122089
H    -1.647959    1.157778   -0.172075    0.000617   -0.059167   -0.430147
H     2.591386    0.900674   -0.049093    0.017717   -0.061111   -0.699357
H     0.200212   -2.278802   -0.623386    0.205080    0.261706   -0.146119
13
* Frequency(17)  819.2796
C     1.621615    0.402244   -0.008837   -0.007413    0.023514    0.309906
C     1.538909   -0.919494    0.115008    0.001897    0.006021    0.096068
N     0.235006   -1.585898    0.137732   -0.007292    0.017559    0.092249
C    -1.041435   -0.750858    0.042830    0.007873   -0.014870   -0.131666
N    -0.810829    0.576520   -0.082990   -0.006378    0.012133    0.196517
C     0.422284    1.264591   -0.060569    0.014361   -0.051257   -0.618396
O    -2.084970   -1.327003    0.054221    0.000012    0.004476    0.029498
O     0.451257    2.463585   -0.206899   -0.003992    0.014686    0.162583
H     2.379872   -1.599241    0.291597    0.038275   -0.144387   -1.563609
H     0.151938   -2.135904    1.014882   -0.207769   -0.277754   -0.122089
H    -1.648030    1.164595   -0.122516    0.000617   -0.059167   -0.430147
H     2.589345    0.907715    0.031484    0.017717   -0.061111   -0.699357
H     0.176583   -2.308955   -0.606551    0.205080    0.261706   -0.146119
13
* Frequency(17)  819.2796
C     1.622423    0.399681   -0.042609   -0.007413    0.023514    0.309906
C     1.538702   -0.920150    0.104539    0.001897    0.006021    0.096068
N     0.235801   -1.587812    0.127679   -0.007292    0.017559    0.092249
C    -1.042293   -0.749238    0.057178    0.007873   -0.014870   -0.131666
N    -0.810134    0.575198   -0.104405   -0.006378    0.012133    0.196517
C     0.420719    1.270177    0.006820    0.014361   -0.051257   -0.618396
O    -2.084972   -1.327490    0.051007    0.000012    0.004476    0.029498
O     0.451692    2.461984   -0.224616   -0.003992    0.014686    0.162583
H     2.375701   -1.583507    0.461989    0.038275   -0.144387   -1.563609
H     0.174579   -2.105636    1.028187   -0.207769   -0.277754   -0.122089
H    -1.648097    1.171042   -0.075641    0.000617   -0.059167   -0.430147
H     2.587415    0.914375    0.107695    0.017717   -0.061111   -0.699357
H     0.154235   -2.337474   -0.590628    0.205080    0.261706   -0.146119
13
* Frequency(17)  819.2796
C     1.623097    0.397543   -0.070786   -0.007413    0.023514    0.309906
C     1.538529   -0.920698    0.095805    0.001897    0.006021    0.096068
N     0.236463   -1.589408    0.119292   -0.007292    0.017559    0.092249
C    -1.043009   -0.747886    0.069149    0.007873   -0.014870   -0.131666
N    -0.809554    0.574095   -0.122273   -0.006378    0.012133    0.196517
C     0.419413    1.274837    0.063045    0.014361   -0.051257   -0.618396
O    -2.084973   -1.327897    0.048325    0.000012    0.004476    0.029498
O     0.452055    2.460649   -0.239399   -0.003992    0.014686    0.162583
H     2.372221   -1.570379    0.604155    0.038275   -0.144387   -1.563609
H     0.193470   -2.080382    1.039287   -0.207769   -0.277754   -0.122089
H    -1.648153    1.176422   -0.036531    0.000617   -0.059167   -0.430147
H     2.585804    0.919931    0.171282    0.017717   -0.061111   -0.699357
H     0.135589   -2.361269   -0.577343    0.205080    0.261706   -0.146119
13
* Frequency(17)  819.2796
C     1.623564    0.396062   -0.090315   -0.007413    0.023514    0.309906
C     1.538410   -0.921077    0.089751    0.001897    0.006021    0.096068
N     0.236923   -1.590515    0.113478   -0.007292    0.017559    0.092249
C    -1.043505   -0.746949    0.077446    0.007873   -0.014870   -0.131666
N    -0.809152    0.573330   -0.134657   -0.006378    0.012133    0.196517
C     0.418508    1.278067    0.102015    0.014361   -0.051257   -0.618396
O    -2.084974   -1.328179    0.046466    0.000012    0.004476    0.029498
O     0.452307    2.459724   -0.249644   -0.003992    0.014686    0.162583
H     2.369809   -1.561280    0.702690    0.038275   -0.144387   -1.563609
H     0.206563   -2.062879    1.046981   -0.207769   -0.277754   -0.122089
H    -1.648192    1.180150   -0.009424    0.000617   -0.059167   -0.430147
H     2.584687    0.923782    0.215354    0.017717   -0.061111   -0.699357
H     0.122665   -2.377761   -0.568135    0.205080    0.261706   -0.146119
13
* Frequency(17)  819.2796
C     1.623774    0.395396   -0.099081   -0.007413    0.023514    0.309906
C     1.538356   -0.921248    0.087034    0.001897    0.006021    0.096068
N     0.237129   -1.591011    0.110869   -0.007292    0.017559    0.092249
C    -1.043728   -0.746528    0.081170    0.007873   -0.014870   -0.131666
N    -0.808972    0.572987   -0.140215   -0.006378    0.012133    0.196517
C     0.418102    1.279517    0.119506    0.014361   -0.051257   -0.618396
O    -2.084974   -1.328306    0.045631    0.000012    0.004476    0.029498
O     0.452420    2.459308   -0.254243   -0.003992    0.014686    0.162583
H     2.368726   -1.557196    0.746915    0.038275   -0.144387   -1.563609
H     0.212440   -2.055023    1.050434   -0.207769   -0.277754   -0.122089
H    -1.648209    1.181824    0.002742    0.000617   -0.059167   -0.430147
H     2.584186    0.925511    0.235134    0.017717   -0.061111   -0.699357
H     0.116865   -2.385163   -0.564002    0.205080    0.261706   -0.146119
13
* Frequency(17)  819.2796
C     1.623703    0.395620   -0.096132   -0.007413    0.023514    0.309906
C     1.538374   -0.921190    0.087948    0.001897    0.006021    0.096068
N     0.237060   -1.590844    0.111747   -0.007292    0.017559    0.092249
C    -1.043653   -0.746669    0.079918    0.007873   -0.014870   -0.131666
N    -0.809032    0.573102   -0.138345   -0.006378    0.012133    0.196517
C     0.418239    1.279029    0.113622    0.014361   -0.051257   -0.618396
O    -2.084974   -1.328263    0.045912    0.000012    0.004476    0.029498
O     0.452382    2.459448   -0.252696   -0.003992    0.014686    0.162583
H     2.369091   -1.558570    0.732038    0.038275   -0.144387   -1.563609
H     0.210463   -2.057666    1.049272   -0.207769   -0.277754   -0.122089
H    -1.648203    1.181261   -0.001351    0.000617   -0.059167   -0.430147
H     2.584355    0.924929    0.228480    0.017717   -0.061111   -0.699357
H     0.118816   -2.382673   -0.565392    0.205080    0.261706   -0.146119
13
* Frequency(17)  819.2796
C     1.623360    0.396708   -0.081789   -0.007413    0.023514    0.309906
C     1.538462   -0.920912    0.092394    0.001897    0.006021    0.096068
N     0.236722   -1.590032    0.116016   -0.007292    0.017559    0.092249
C    -1.043289   -0.747358    0.073824    0.007873   -0.014870   -0.131666
N    -0.809327    0.573664   -0.129250   -0.006378    0.012133    0.196517
C     0.418903    1.276657    0.085002    0.014361   -0.051257   -0.618396
O    -2.084973   -1.328056    0.047277    0.000012    0.004476    0.029498
O     0.452197    2.460128   -0.245171   -0.003992    0.014686    0.162583
H     2.370862   -1.565252    0.659671    0.038275   -0.144387   -1.563609
H     0.200847   -2.070520    1.043622   -0.207769   -0.277754   -0.122089
H    -1.648175    1.178523   -0.021259    0.000617   -0.059167   -0.430147
H     2.585175    0.922101    0.196113    0.017717   -0.061111   -0.699357
H     0.128307   -2.370561   -0.572155    0.205080    0.261706   -0.146119
13
* Frequency(17)  819.2796
C     1.622782    0.398543   -0.057606   -0.007413    0.023514    0.309906
C     1.538610   -0.920442    0.099890    0.001897    0.006021    0.096068
N     0.236153   -1.588661    0.123215   -0.007292    0.017559    0.092249
C    -1.042674   -0.748518    0.063549    0.007873   -0.014870   -0.131666
N    -0.809825    0.574611   -0.113915   -0.006378    0.012133    0.196517
C     0.420024    1.272657    0.036746    0.014361   -0.051257   -0.618396
O    -2.084972   -1.327707    0.049579    0.000012    0.004476    0.029498
O     0.451886    2.461274   -0.232484   -0.003992    0.014686    0.162583
H     2.373849   -1.576519    0.537657    0.038275   -0.144387   -1.563609
H     0.184634   -2.092195    1.034095   -0.207769   -0.277754   -0.122089
H    -1.648127    1.173906   -0.054825    0.000617   -0.059167   -0.430147
H     2.586557    0.917332    0.141539    0.017717   -0.061111   -0.699357
H     0.144311   -2.350139   -0.583557    0.205080    0.261706   -0.146119
13
* Frequency(17)  819.2796
C     1.622031    0.400926   -0.026203   -0.007413    0.023514    0.309906
C     1.538802   -0.919832    0.109625    0.001897    0.006021    0.096068
N     0.235415   -1.586882    0.132563   -0.007292    0.017559    0.092249
C    -1.041877   -0.750025    0.050208    0.007873   -0.014870   -0.131666
N    -0.810471    0.575840   -0.094002   -0.006378    0.012133    0.196517
C     0.421479    1.267463   -0.025916    0.014361   -0.051257   -0.618396
O    -2.084971   -1.327254    0.052568    0.000012    0.004476    0.029498
O     0.451481    2.462762   -0.216010   -0.003992    0.014686    0.162583
H     2.377727   -1.591150    0.379217    0.038275   -0.144387   -1.563609
H     0.163581   -2.120339    1.021724   -0.207769   -0.277754   -0.122089
H    -1.648064    1.167910   -0.098412    0.000617   -0.059167   -0.430147
H     2.588352    0.911140    0.070674    0.017717   -0.061111   -0.699357
H     0.165091   -2.323620   -0.598363    0.205080    0.261706   -0.146119
13
* Frequency(17)  819.2796
C     1.621188    0.403598    0.009016   -0.007413    0.023514    0.309906
C     1.539018   -0.919147    0.120543    0.001897    0.006021    0.096068
N     0.234586   -1.584887    0.143046   -0.007292    0.017559    0.092249
C    -1.040982   -0.751715    0.035244    0.007873   -0.014870   -0.131666
N    -0.811196    0.577219   -0.071669   -0.006378    0.012133    0.196517
C     0.423111    1.261638   -0.096194    0.014361   -0.051257   -0.618396
O    -2.084970   -1.326745    0.055920    0.000012    0.004476    0.029498
O     0.451027    2.464431   -0.197533   -0.003992    0.014686    0.162583
H     2.382077   -1.607559    0.201521    0.038275   -0.144387   -1.563609
H     0.139969   -2.151905    1.007849   -0.207769   -0.277754   -0.122089
H    -1.647994    1.161186   -0.147295    0.000617   -0.059167   -0.430147
H     2.590366    0.904195   -0.008805    0.017717   -0.061111   -0.699357
H     0.188398   -2.293879   -0.614969    0.205080    0.261706   -0.146119
