13
* (null), Energy   -1000.0000000
C     1.621188    0.403598    0.009016   -0.571857   -0.180887   -0.014969
C     1.539018   -0.919147    0.120543   -0.510017   -0.241602    0.002893
N     0.234586   -1.584887    0.143046   -0.137701   -0.623633    0.067475
C    -1.040982   -0.751715    0.035244    0.546698   -0.116207    0.079689
N    -0.811196    0.577219   -0.071669    0.201357    0.084741   -0.013056
C     0.423111    1.261638   -0.096194   -0.127937    0.511092   -0.049062
O    -2.084970   -1.326745    0.055920    0.463591    0.072739   -0.018017
O     0.451027    2.464431   -0.197533    0.052778    0.560905   -0.036739
H     2.382077   -1.607559    0.201521   -0.228111    0.110140   -0.037456
H     0.139969   -2.151905    1.007849   -0.199089   -0.666739    0.050641
H    -1.647994    1.161186   -0.147295   -0.183153   -0.479209   -0.087075
H     2.590366    0.904195   -0.008805   -0.318989   -0.671713    0.003052
H     0.188398   -2.293879   -0.614969   -0.249601   -0.532422   -0.037310
13
* Frequency(10)  476.5409
C     1.556200    0.383041    0.007315   -0.571857   -0.180887   -0.014969
C     1.481057   -0.946604    0.120871   -0.510017   -0.241602    0.002893
N     0.218937   -1.655759    0.150714   -0.137701   -0.623633    0.067475
C    -0.978853   -0.764921    0.044301    0.546698   -0.116207    0.079689
N    -0.788313    0.586849   -0.073153    0.201357    0.084741   -0.013056
C     0.408572    1.319721   -0.101769   -0.127937    0.511092   -0.049062
O    -2.032285   -1.318478    0.053873    0.463591    0.072739   -0.018017
O     0.457025    2.528175   -0.201708    0.052778    0.560905   -0.036739
H     2.356153   -1.595042    0.197264   -0.228111    0.110140   -0.037456
H     0.117344   -2.227676    1.013604   -0.199089   -0.666739    0.050641
H    -1.668808    1.106726   -0.157191   -0.183153   -0.479209   -0.087075
H     2.554114    0.827858   -0.008458   -0.318989   -0.671713    0.003052
H     0.160032   -2.354386   -0.619209   -0.249601   -0.532422   -0.037310
13
* Frequency(10)  476.5409
C     1.498254    0.364712    0.005798   -0.571857   -0.180887   -0.014969
C     1.429377   -0.971085    0.121165   -0.510017   -0.241602    0.002893
N     0.204984   -1.718952    0.157552   -0.137701   -0.623633    0.067475
C    -0.923456   -0.776696    0.052376    0.546698   -0.116207    0.079689
N    -0.767910    0.595436   -0.074475    0.201357    0.084741   -0.013056
C     0.395608    1.371510   -0.106741   -0.127937    0.511092   -0.049062
O    -1.985310   -1.311108    0.052047    0.463591    0.072739   -0.018017
O     0.462373    2.585011   -0.205431    0.052778    0.560905   -0.036739
H     2.333039   -1.583882    0.193469   -0.228111    0.110140   -0.037456
H     0.097170   -2.295236    1.018735   -0.199089   -0.666739    0.050641
H    -1.687367    1.058168   -0.166014   -0.183153   -0.479209   -0.087075
H     2.521791    0.759794   -0.008149   -0.318989   -0.671713    0.003052
H     0.134740   -2.408336   -0.622990   -0.249601   -0.532422   -0.037310
13
* Frequency(10)  476.5409
C     1.453629    0.350597    0.004630   -0.571857   -0.180887   -0.014969
C     1.389579   -0.989939    0.121390   -0.510017   -0.241602    0.002893
N     0.194238   -1.767616    0.162817   -0.137701   -0.623633    0.067475
C    -0.880795   -0.785764    0.058594    0.546698   -0.116207    0.079689
N    -0.752197    0.602049   -0.075494    0.201357    0.084741   -0.013056
C     0.385624    1.411392   -0.110569   -0.127937    0.511092   -0.049062
O    -1.949134   -1.305432    0.050641    0.463591    0.072739   -0.018017
O     0.466492    2.628780   -0.208298    0.052778    0.560905   -0.036739
H     2.315239   -1.575287    0.190546   -0.228111    0.110140   -0.037456
H     0.081634   -2.347265    1.022687   -0.199089   -0.666739    0.050641
H    -1.701659    1.020774   -0.172809   -0.183153   -0.479209   -0.087075
H     2.496899    0.707377   -0.007910   -0.318989   -0.671713    0.003052
H     0.115262   -2.449883   -0.625901   -0.249601   -0.532422   -0.037310
13
* Frequency(10)  476.5409
C     1.427163    0.342225    0.003937   -0.571857   -0.180887   -0.014969
C     1.365974   -1.001120    0.121524   -0.510017   -0.241602    0.002893
N     0.187865   -1.796479    0.165940   -0.137701   -0.623633    0.067475
C    -0.855493   -0.791143    0.062282    0.546698   -0.116207    0.079689
N    -0.742878    0.605971   -0.076098    0.201357    0.084741   -0.013056
C     0.379703    1.435047   -0.112840   -0.127937    0.511092   -0.049062
O    -1.927678   -1.302065    0.049807    0.463591    0.072739   -0.018017
O     0.468935    2.654740   -0.209998    0.052778    0.560905   -0.036739
H     2.304681   -1.570190    0.188812   -0.228111    0.110140   -0.037456
H     0.072420   -2.378122    1.025031   -0.199089   -0.666739    0.050641
H    -1.710136    0.998595   -0.176839   -0.183153   -0.479209   -0.087075
H     2.482136    0.676289   -0.007769   -0.318989   -0.671713    0.003052
H     0.103710   -2.474524   -0.627628   -0.249601   -0.532422   -0.037310
13
* Frequency(10)  476.5409
C     1.421722    0.340504    0.003795   -0.571857   -0.180887   -0.014969
C     1.361122   -1.003419    0.121552   -0.510017   -0.241602    0.002893
N     0.186555   -1.802413    0.166582   -0.137701   -0.623633    0.067475
C    -0.850291   -0.792248    0.063040    0.546698   -0.116207    0.079689
N    -0.740962    0.606777   -0.076223    0.201357    0.084741   -0.013056
C     0.378486    1.439909   -0.113307   -0.127937    0.511092   -0.049062
O    -1.923267   -1.301373    0.049636    0.463591    0.072739   -0.018017
O     0.469437    2.660077   -0.210348    0.052778    0.560905   -0.036739
H     2.302511   -1.569142    0.188456   -0.228111    0.110140   -0.037456
H     0.070526   -2.384466    1.025512   -0.199089   -0.666739    0.050641
H    -1.711879    0.994036   -0.177668   -0.183153   -0.479209   -0.087075
H     2.479101    0.669898   -0.007740   -0.318989   -0.671713    0.003052
H     0.101336   -2.479590   -0.627983   -0.249601   -0.532422   -0.037310
13
* Frequency(10)  476.5409
C     1.437896    0.345620    0.004218   -0.571857   -0.180887   -0.014969
C     1.375547   -0.996586    0.121470   -0.510017   -0.241602    0.002893
N     0.190450   -1.784774    0.164673   -0.137701   -0.623633    0.067475
C    -0.865754   -0.788961    0.060786    0.546698   -0.116207    0.079689
N    -0.746657    0.604380   -0.075853    0.201357    0.084741   -0.013056
C     0.382105    1.425454   -0.111919   -0.127937    0.511092   -0.049062
O    -1.936379   -1.303430    0.050145    0.463591    0.072739   -0.018017
O     0.467944    2.644212   -0.209308    0.052778    0.560905   -0.036739
H     2.308963   -1.572257    0.189515   -0.228111    0.110140   -0.037456
H     0.076157   -2.365608    1.024080   -0.199089   -0.666739    0.050641
H    -1.706698    1.007590   -0.175205   -0.183153   -0.479209   -0.087075
H     2.488123    0.688897   -0.007826   -0.318989   -0.671713    0.003052
H     0.108395   -2.464531   -0.626928   -0.249601   -0.532422   -0.037310
13
* Frequency(10)  476.5409
C     1.473933    0.357019    0.005161   -0.571857   -0.180887   -0.014969
C     1.407687   -0.981360    0.121288   -0.510017   -0.241602    0.002893
N     0.199127   -1.745474    0.160421   -0.137701   -0.623633    0.067475
C    -0.900205   -0.781638    0.055765    0.546698   -0.116207    0.079689
N    -0.759346    0.599040   -0.075031    0.201357    0.084741   -0.013056
C     0.390167    1.393246   -0.108827   -0.127937    0.511092   -0.049062
O    -1.965593   -1.308014    0.051281    0.463591    0.072739   -0.018017
O     0.464618    2.608865   -0.206993    0.052778    0.560905   -0.036739
H     2.323338   -1.579197    0.191876   -0.228111    0.110140   -0.037456
H     0.088703   -2.323592    1.020889   -0.199089   -0.666739    0.050641
H    -1.695157    1.037788   -0.169718   -0.183153   -0.479209   -0.087075
H     2.508225    0.731226   -0.008019   -0.318989   -0.671713    0.003052
H     0.124124   -2.430979   -0.624576   -0.249601   -0.532422   -0.037310
13
* Frequency(10)  476.5409
C     1.525927    0.373466    0.006522   -0.571857   -0.180887   -0.014969
C     1.454058   -0.959394    0.121025   -0.510017   -0.241602    0.002893
N     0.211647   -1.688773    0.154286   -0.137701   -0.623633    0.067475
C    -0.949912   -0.771073    0.048519    0.546698   -0.116207    0.079689
N    -0.777654    0.591335   -0.073844    0.201357    0.084741   -0.013056
C     0.401799    1.346777   -0.104366   -0.127937    0.511092   -0.049062
O    -2.007744   -1.314628    0.052919    0.463591    0.072739   -0.018017
O     0.459819    2.557867   -0.203653    0.052778    0.560905   -0.036739
H     2.344078   -1.589212    0.195281   -0.228111    0.110140   -0.037456
H     0.106804   -2.262971    1.016285   -0.199089   -0.666739    0.050641
H    -1.678504    1.081359   -0.161801   -0.183153   -0.479209   -0.087075
H     2.537228    0.792300   -0.008296   -0.318989   -0.671713    0.003052
H     0.146819   -2.382570   -0.621184   -0.249601   -0.532422   -0.037310
13
* Frequency(10)  476.5409
C     1.588245    0.393178    0.008154   -0.571857   -0.180887   -0.014969
C     1.509637   -0.933065    0.120709   -0.510017   -0.241602    0.002893
N     0.226653   -1.620813    0.146933   -0.137701   -0.623633    0.067475
C    -1.009488   -0.758409    0.039835    0.546698   -0.116207    0.079689
N    -0.799597    0.582101   -0.072421    0.201357    0.084741   -0.013056
C     0.415741    1.291081   -0.099020   -0.127937    0.511092   -0.049062
O    -2.058263   -1.322554    0.054882    0.463591    0.072739   -0.018017
O     0.454068    2.496743   -0.199649    0.052778    0.560905   -0.036739
H     2.368936   -1.601214    0.199363   -0.228111    0.110140   -0.037456
H     0.128500   -2.190314    1.010766   -0.199089   -0.666739    0.050641
H    -1.658545    1.133580   -0.152312   -0.183153   -0.479209   -0.087075
H     2.571989    0.865499   -0.008629   -0.318989   -0.671713    0.003052
H     0.174019   -2.324550   -0.617118   -0.249601   -0.532422   -0.037310
13
* Frequency(10)  476.5409
C     1.654132    0.414019    0.009878   -0.571857   -0.180887   -0.014969
C     1.568399   -0.905229    0.120376   -0.510017   -0.241602    0.002893
N     0.242519   -1.548961    0.139159   -0.137701   -0.623633    0.067475
C    -1.072476   -0.745020    0.030654    0.546698   -0.116207    0.079689
N    -0.822796    0.572337   -0.070917    0.201357    0.084741   -0.013056
C     0.430481    1.232195   -0.093367   -0.127937    0.511092   -0.049062
O    -2.111676   -1.330935    0.056958    0.463591    0.072739   -0.018017
O     0.447987    2.432118   -0.195416    0.052778    0.560905   -0.036739
H     2.395218   -1.613904    0.203678   -0.228111    0.110140   -0.037456
H     0.151438   -2.113495    1.004931   -0.199089   -0.666739    0.050641
H    -1.637443    1.188792   -0.142279   -0.183153   -0.479209   -0.087075
H     2.608742    0.942891   -0.008980   -0.318989   -0.671713    0.003052
H     0.202777   -2.263207   -0.612819   -0.249601   -0.532422   -0.037310
13
* Frequency(10)  476.5409
C     1.716449    0.433731    0.011510   -0.571857   -0.180887   -0.014969
C     1.623977   -0.878901    0.120061   -0.510017   -0.241602    0.002893
N     0.257524   -1.481001    0.131806   -0.137701   -0.623633    0.067475
C    -1.132052   -0.732357    0.021970    0.546698   -0.116207    0.079689
N    -0.844739    0.563103   -0.069494    0.201357    0.084741   -0.013056
C     0.444423    1.176500   -0.088021   -0.127937    0.511092   -0.049062
O    -2.162196   -1.338862    0.058922    0.463591    0.072739   -0.018017
O     0.442236    2.370994   -0.191413    0.052778    0.560905   -0.036739
H     2.420076   -1.625906    0.207760   -0.228111    0.110140   -0.037456
H     0.173133   -2.040838    0.999413   -0.199089   -0.666739    0.050641
H    -1.617484    1.241014   -0.132790   -0.183153   -0.479209   -0.087075
H     2.643503    1.016090   -0.009313   -0.318989   -0.671713    0.003052
H     0.229977   -2.205187   -0.608754   -0.249601   -0.532422   -0.037310
13
* Frequency(10)  476.5409
C     1.768443    0.450177    0.012871   -0.571857   -0.180887   -0.014969
C     1.670349   -0.856934    0.119798   -0.510017   -0.241602    0.002893
N     0.270044   -1.424299    0.125671   -0.137701   -0.623633    0.067475
C    -1.181758   -0.721791    0.014724    0.546698   -0.116207    0.079689
N    -0.863047    0.555398   -0.068307    0.201357    0.084741   -0.013056
C     0.456055    1.130030   -0.083560   -0.127937    0.511092   -0.049062
O    -2.204346   -1.345475    0.060560    0.463591    0.072739   -0.018017
O     0.437437    2.319996   -0.188072    0.052778    0.560905   -0.036739
H     2.440816   -1.635920    0.211166   -0.228111    0.110140   -0.037456
H     0.191235   -1.980217    0.994809   -0.199089   -0.666739    0.050641
H    -1.600832    1.284584   -0.124873   -0.183153   -0.479209   -0.087075
H     2.672507    1.077163   -0.009591   -0.318989   -0.671713    0.003052
H     0.252671   -2.156778   -0.605361   -0.249601   -0.532422   -0.037310
13
* Frequency(10)  476.5409
C     1.804480    0.461576    0.013814   -0.571857   -0.180887   -0.014969
C     1.702489   -0.841709    0.119615   -0.510017   -0.241602    0.002893
N     0.278722   -1.385000    0.121419   -0.137701   -0.623633    0.067475
C    -1.216210   -0.714468    0.009702    0.546698   -0.116207    0.079689
N    -0.875736    0.550058   -0.067484    0.201357    0.084741   -0.013056
C     0.464118    1.097823   -0.080468   -0.127937    0.511092   -0.049062
O    -2.233560   -1.350059    0.061695    0.463591    0.072739   -0.018017
O     0.434111    2.284649   -0.185757    0.052778    0.560905   -0.036739
H     2.455191   -1.642861    0.213526   -0.228111    0.110140   -0.037456
H     0.203781   -1.938201    0.991617   -0.199089   -0.666739    0.050641
H    -1.589290    1.314783   -0.119386   -0.183153   -0.479209   -0.087075
H     2.692608    1.119493   -0.009783   -0.318989   -0.671713    0.003052
H     0.268400   -2.123227   -0.603010   -0.249601   -0.532422   -0.037310
13
* Frequency(10)  476.5409
C     1.820654    0.466692    0.014237   -0.571857   -0.180887   -0.014969
C     1.716914   -0.834875    0.119534   -0.510017   -0.241602    0.002893
N     0.282617   -1.367361    0.119511   -0.137701   -0.623633    0.067475
C    -1.231673   -0.711181    0.007449    0.546698   -0.116207    0.079689
N    -0.881431    0.547661   -0.067115    0.201357    0.084741   -0.013056
C     0.467736    1.083367   -0.079080   -0.127937    0.511092   -0.049062
O    -2.246672   -1.352117    0.062205    0.463591    0.072739   -0.018017
O     0.432618    2.268784   -0.184718    0.052778    0.560905   -0.036739
H     2.461643   -1.645976    0.214585   -0.228111    0.110140   -0.037456
H     0.209412   -1.919343    0.990185   -0.199089   -0.666739    0.050641
H    -1.584109    1.328336   -0.116923   -0.183153   -0.479209   -0.087075
H     2.701631    1.138491   -0.009869   -0.318989   -0.671713    0.003052
H     0.275460   -2.108168   -0.601955   -0.249601   -0.532422   -0.037310
13
* Frequency(10)  476.5409
C     1.815213    0.464971    0.014095   -0.571857   -0.180887   -0.014969
C     1.712062   -0.837174    0.119561   -0.510017   -0.241602    0.002893
N     0.281307   -1.373294    0.120152   -0.137701   -0.623633    0.067475
C    -1.226471   -0.712287    0.008207    0.546698   -0.116207    0.079689
N    -0.879515    0.548467   -0.067239    0.201357    0.084741   -0.013056
C     0.466519    1.088230   -0.079547   -0.127937    0.511092   -0.049062
O    -2.242262   -1.351425    0.062033    0.463591    0.072739   -0.018017
O     0.433120    2.274121   -0.185068    0.052778    0.560905   -0.036739
H     2.459473   -1.644928    0.214229   -0.228111    0.110140   -0.037456
H     0.207518   -1.925687    0.990667   -0.199089   -0.666739    0.050641
H    -1.585852    1.323777   -0.117752   -0.183153   -0.479209   -0.087075
H     2.698596    1.132100   -0.009840   -0.318989   -0.671713    0.003052
H     0.273085   -2.113233   -0.602310   -0.249601   -0.532422   -0.037310
13
* Frequency(10)  476.5409
C     1.788747    0.456599    0.013402   -0.571857   -0.180887   -0.014969
C     1.688457   -0.848356    0.119695   -0.510017   -0.241602    0.002893
N     0.274934   -1.402157    0.123275   -0.137701   -0.623633    0.067475
C    -1.201169   -0.717665    0.011895    0.546698   -0.116207    0.079689
N    -0.870196    0.552389   -0.067843    0.201357    0.084741   -0.013056
C     0.460598    1.111884   -0.081818   -0.127937    0.511092   -0.049062
O    -2.220806   -1.348058    0.061200    0.463591    0.072739   -0.018017
O     0.435563    2.300081   -0.186768    0.052778    0.560905   -0.036739
H     2.448915   -1.639831    0.212496   -0.228111    0.110140   -0.037456
H     0.198304   -1.956545    0.993011   -0.199089   -0.666739    0.050641
H    -1.594329    1.301598   -0.121782   -0.183153   -0.479209   -0.087075
H     2.683832    1.101012   -0.009699   -0.318989   -0.671713    0.003052
H     0.261533   -2.137875   -0.604037   -0.249601   -0.532422   -0.037310
13
* Frequency(10)  476.5409
C     1.744123    0.442484    0.012234   -0.571857   -0.180887   -0.014969
C     1.648659   -0.867209    0.119921   -0.510017   -0.241602    0.002893
N     0.264188   -1.450822    0.128541   -0.137701   -0.623633    0.067475
C    -1.158508   -0.726733    0.018113    0.546698   -0.116207    0.079689
N    -0.854483    0.559002   -0.068862    0.201357    0.084741   -0.013056
C     0.450614    1.151767   -0.085646   -0.127937    0.511092   -0.049062
O    -2.184630   -1.342382    0.059794    0.463591    0.072739   -0.018017
O     0.439681    2.343850   -0.189635    0.052778    0.560905   -0.036739
H     2.431115   -1.631236    0.209573   -0.228111    0.110140   -0.037456
H     0.182768   -2.008573    0.996962   -0.199089   -0.666739    0.050641
H    -1.608621    1.264204   -0.128577   -0.183153   -0.479209   -0.087075
H     2.658940    1.048596   -0.009461   -0.318989   -0.671713    0.003052
H     0.242056   -2.179422   -0.606948   -0.249601   -0.532422   -0.037310
13
* Frequency(10)  476.5409
C     1.686177    0.424155    0.010717   -0.571857   -0.180887   -0.014969
C     1.596979   -0.891690    0.120214   -0.510017   -0.241602    0.002893
N     0.250235   -1.514014    0.135378   -0.137701   -0.623633    0.067475
C    -1.103111   -0.738508    0.026188    0.546698   -0.116207    0.079689
N    -0.834080    0.567589   -0.070185    0.201357    0.084741   -0.013056
C     0.437651    1.203555   -0.090618   -0.127937    0.511092   -0.049062
O    -2.137654   -1.335011    0.057968    0.463591    0.072739   -0.018017
O     0.445029    2.400687   -0.193358    0.052778    0.560905   -0.036739
H     2.408001   -1.620076    0.205777   -0.228111    0.110140   -0.037456
H     0.162594   -2.076133    1.002094   -0.199089   -0.666739    0.050641
H    -1.627180    1.215646   -0.137400   -0.183153   -0.479209   -0.087075
H     2.626617    0.980531   -0.009151   -0.318989   -0.671713    0.003052
H     0.216764   -2.233372   -0.610729   -0.249601   -0.532422   -0.037310
13
* Frequency(10)  476.5409
C     1.621188    0.403598    0.009016   -0.571857   -0.180887   -0.014969
C     1.539018   -0.919147    0.120543   -0.510017   -0.241602    0.002893
N     0.234586   -1.584887    0.143046   -0.137701   -0.623633    0.067475
C    -1.040982   -0.751715    0.035244    0.546698   -0.116207    0.079689
N    -0.811196    0.577219   -0.071669    0.201357    0.084741   -0.013056
C     0.423111    1.261638   -0.096194   -0.127937    0.511092   -0.049062
O    -2.084970   -1.326745    0.055920    0.463591    0.072739   -0.018017
O     0.451027    2.464431   -0.197533    0.052778    0.560905   -0.036739
H     2.382077   -1.607559    0.201521   -0.228111    0.110140   -0.037456
H     0.139969   -2.151905    1.007849   -0.199089   -0.666739    0.050641
H    -1.647994    1.161186   -0.147295   -0.183153   -0.479209   -0.087075
H     2.590366    0.904195   -0.008805   -0.318989   -0.671713    0.003052
H     0.188398   -2.293879   -0.614969   -0.249601   -0.532422   -0.037310
