13
* (null), Energy   -1000.0000000
C     1.621188    0.403598    0.009016    0.004633   -0.012200   -0.147443
C     1.539018   -0.919147    0.120543    0.003908   -0.002617   -0.039722
N     0.234586   -1.584887    0.143046   -0.000264    0.014034    0.135452
C    -1.040982   -0.751715    0.035244   -0.001207   -0.011275   -0.134269
N    -0.811196    0.577219   -0.071669    0.026304   -0.094003   -1.121574
C     0.423111    1.261638   -0.096194    0.002492   -0.011475   -0.117279
O    -2.084970   -1.326745    0.055920   -0.016905    0.042648    0.529884
O     0.451027    2.464431   -0.197533   -0.014822    0.058033    0.702360
H     2.382077   -1.607559    0.201521    0.002122    0.003519    0.031674
H     0.139969   -2.151905    1.007849   -0.018343    0.291782    0.313870
H    -1.647994    1.161186   -0.147295    0.028804   -0.103143   -1.220120
H     2.590366    0.904195   -0.008805    0.002013   -0.005970   -0.113284
H     0.188398   -2.293879   -0.614969    0.010035   -0.225329    0.360204
13
* Frequency(7)  142.7618
C     1.621715    0.402212   -0.007740    0.004633   -0.012200   -0.147443
C     1.539462   -0.919445    0.116029    0.003908   -0.002617   -0.039722
N     0.234556   -1.583292    0.158440   -0.000264    0.014034    0.135452
C    -1.041119   -0.752996    0.019985   -0.001207   -0.011275   -0.134269
N    -0.808207    0.566536   -0.199130    0.026304   -0.094003   -1.121574
C     0.423394    1.260334   -0.109522    0.002492   -0.011475   -0.117279
O    -2.086891   -1.321898    0.116139   -0.016905    0.042648    0.529884
O     0.449343    2.471026   -0.117713   -0.014822    0.058033    0.702360
H     2.382318   -1.607159    0.205120    0.002122    0.003519    0.031674
H     0.137884   -2.118745    1.043518   -0.018343    0.291782    0.313870
H    -1.644721    1.149464   -0.285956    0.028804   -0.103143   -1.220120
H     2.590595    0.903516   -0.021679    0.002013   -0.005970   -0.113284
H     0.189538   -2.319486   -0.574034    0.010035   -0.225329    0.360204
13
* Frequency(7)  142.7618
C     1.622184    0.400975   -0.022680    0.004633   -0.012200   -0.147443
C     1.539858   -0.919710    0.112004    0.003908   -0.002617   -0.039722
N     0.234529   -1.581870    0.172165   -0.000264    0.014034    0.135452
C    -1.041241   -0.754138    0.006380   -0.001207   -0.011275   -0.134269
N    -0.805542    0.557011   -0.312779    0.026304   -0.094003   -1.121574
C     0.423647    1.259171   -0.121406    0.002492   -0.011475   -0.117279
O    -2.088604   -1.317577    0.169832   -0.016905    0.042648    0.529884
O     0.447841    2.476906   -0.046543   -0.014822    0.058033    0.702360
H     2.382533   -1.606802    0.208330    0.002122    0.003519    0.031674
H     0.136026   -2.089179    1.075323   -0.018343    0.291782    0.313870
H    -1.641802    1.139013   -0.409590    0.028804   -0.103143   -1.220120
H     2.590798    0.902911   -0.033158    0.002013   -0.005970   -0.113284
H     0.190555   -2.342319   -0.537534    0.010035   -0.225329    0.360204
13
* Frequency(7)  142.7618
C     1.622546    0.400023   -0.034186    0.004633   -0.012200   -0.147443
C     1.540163   -0.919914    0.108904    0.003908   -0.002617   -0.039722
N     0.234509   -1.580775    0.182735   -0.000264    0.014034    0.135452
C    -1.041336   -0.755018   -0.004097   -0.001207   -0.011275   -0.134269
N    -0.803489    0.549675   -0.400299    0.026304   -0.094003   -1.121574
C     0.423841    1.258276   -0.130557    0.002492   -0.011475   -0.117279
O    -2.089923   -1.314248    0.211181   -0.016905    0.042648    0.529884
O     0.446685    2.481435    0.008264   -0.014822    0.058033    0.702360
H     2.382699   -1.606528    0.210801    0.002122    0.003519    0.031674
H     0.134594   -2.066410    1.099815   -0.018343    0.291782    0.313870
H    -1.639554    1.130964   -0.504801    0.028804   -0.103143   -1.220120
H     2.590955    0.902446   -0.041998    0.002013   -0.005970   -0.113284
H     0.191338   -2.359902   -0.509426    0.010035   -0.225329    0.360204
13
* Frequency(7)  142.7618
C     1.622760    0.399459   -0.041010    0.004633   -0.012200   -0.147443
C     1.540344   -0.920035    0.107065    0.003908   -0.002617   -0.039722
N     0.234496   -1.580125    0.189004   -0.000264    0.014034    0.135452
C    -1.041391   -0.755540   -0.010312   -0.001207   -0.011275   -0.134269
N    -0.802272    0.545325   -0.452208    0.026304   -0.094003   -1.121574
C     0.423957    1.257745   -0.135985    0.002492   -0.011475   -0.117279
O    -2.090705   -1.312275    0.235705   -0.016905    0.042648    0.529884
O     0.445999    2.484120    0.040771   -0.014822    0.058033    0.702360
H     2.382797   -1.606365    0.212267    0.002122    0.003519    0.031674
H     0.133745   -2.052906    1.114342   -0.018343    0.291782    0.313870
H    -1.638221    1.126191   -0.561270    0.028804   -0.103143   -1.220120
H     2.591049    0.902169   -0.047241    0.002013   -0.005970   -0.113284
H     0.191802   -2.370330   -0.492755    0.010035   -0.225329    0.360204
13
* Frequency(7)  142.7618
C     1.622804    0.399343   -0.042413    0.004633   -0.012200   -0.147443
C     1.540381   -0.920060    0.106688    0.003908   -0.002617   -0.039722
N     0.234494   -1.579992    0.190292   -0.000264    0.014034    0.135452
C    -1.041403   -0.755647   -0.011589   -0.001207   -0.011275   -0.134269
N    -0.802021    0.544430   -0.462879    0.026304   -0.094003   -1.121574
C     0.423980    1.257636   -0.137101    0.002492   -0.011475   -0.117279
O    -2.090866   -1.311869    0.240746   -0.016905    0.042648    0.529884
O     0.445858    2.484673    0.047453   -0.014822    0.058033    0.702360
H     2.382817   -1.606331    0.212569    0.002122    0.003519    0.031674
H     0.133571   -2.050130    1.117328   -0.018343    0.291782    0.313870
H    -1.637947    1.125209   -0.572879    0.028804   -0.103143   -1.220120
H     2.591068    0.902113   -0.048319    0.002013   -0.005970   -0.113284
H     0.191898   -2.372474   -0.489328    0.010035   -0.225329    0.360204
13
* Frequency(7)  142.7618
C     1.622673    0.399688   -0.038242    0.004633   -0.012200   -0.147443
C     1.540271   -0.919986    0.107811    0.003908   -0.002617   -0.039722
N     0.234501   -1.580389    0.186461   -0.000264    0.014034    0.135452
C    -1.041369   -0.755328   -0.007792   -0.001207   -0.011275   -0.134269
N    -0.802765    0.547089   -0.431156    0.026304   -0.094003   -1.121574
C     0.423910    1.257960   -0.133784    0.002492   -0.011475   -0.117279
O    -2.090388   -1.313075    0.225759   -0.016905    0.042648    0.529884
O     0.446277    2.483031    0.027588   -0.014822    0.058033    0.702360
H     2.382757   -1.606431    0.211673    0.002122    0.003519    0.031674
H     0.134090   -2.058382    1.108450   -0.018343    0.291782    0.313870
H    -1.638762    1.128127   -0.538369    0.028804   -0.103143   -1.220120
H     2.591011    0.902281   -0.045114    0.002013   -0.005970   -0.113284
H     0.191614   -2.366101   -0.499516    0.010035   -0.225329    0.360204
13
* Frequency(7)  142.7618
C     1.622381    0.400457   -0.028951    0.004633   -0.012200   -0.147443
C     1.540024   -0.919821    0.110314    0.003908   -0.002617   -0.039722
N     0.234518   -1.581273    0.177925   -0.000264    0.014034    0.135452
C    -1.041293   -0.754618    0.000670   -0.001207   -0.011275   -0.134269
N    -0.804423    0.553013   -0.360478    0.026304   -0.094003   -1.121574
C     0.423753    1.258683   -0.126393    0.002492   -0.011475   -0.117279
O    -2.089323   -1.315763    0.192367   -0.016905    0.042648    0.529884
O     0.447211    2.479374   -0.016673   -0.014822    0.058033    0.702360
H     2.382623   -1.606653    0.209677    0.002122    0.003519    0.031674
H     0.135246   -2.076770    1.088671   -0.018343    0.291782    0.313870
H    -1.640577    1.134627   -0.461481    0.028804   -0.103143   -1.220120
H     2.590884    0.902658   -0.037976    0.002013   -0.005970   -0.113284
H     0.190982   -2.351902   -0.522215    0.010035   -0.225329    0.360204
13
* Frequency(7)  142.7618
C     1.621960    0.401566   -0.015545    0.004633   -0.012200   -0.147443
C     1.539669   -0.919583    0.113926    0.003908   -0.002617   -0.039722
N     0.234542   -1.582549    0.165610   -0.000264    0.014034    0.135452
C    -1.041183   -0.753593    0.012878   -0.001207   -0.011275   -0.134269
N    -0.806815    0.561560   -0.258502    0.026304   -0.094003   -1.121574
C     0.423526    1.259727   -0.115730    0.002492   -0.011475   -0.117279
O    -2.087786   -1.319640    0.144189   -0.016905    0.042648    0.529884
O     0.448558    2.474098   -0.080533   -0.014822    0.058033    0.702360
H     2.382430   -1.606973    0.206797    0.002122    0.003519    0.031674
H     0.136913   -2.103299    1.060134   -0.018343    0.291782    0.313870
H    -1.643196    1.144004   -0.350545    0.028804   -0.103143   -1.220120
H     2.590701    0.903200   -0.027676    0.002013   -0.005970   -0.113284
H     0.190069   -2.331414   -0.554965    0.010035   -0.225329    0.360204
13
* Frequency(7)  142.7618
C     1.621455    0.402895    0.000522    0.004633   -0.012200   -0.147443
C     1.539243   -0.919298    0.118254    0.003908   -0.002617   -0.039722
N     0.234571   -1.584078    0.150849   -0.000264    0.014034    0.135452
C    -1.041051   -0.752364    0.027509   -0.001207   -0.011275   -0.134269
N    -0.809681    0.571804   -0.136281    0.026304   -0.094003   -1.121574
C     0.423255    1.260977   -0.102950    0.002492   -0.011475   -0.117279
O    -2.085944   -1.324288    0.086446   -0.016905    0.042648    0.529884
O     0.450174    2.467774   -0.157071   -0.014822    0.058033    0.702360
H     2.382199   -1.607356    0.203345    0.002122    0.003519    0.031674
H     0.138912   -2.135096    1.025930   -0.018343    0.291782    0.313870
H    -1.646335    1.155244   -0.217584    0.028804   -0.103143   -1.220120
H     2.590482    0.903851   -0.015331    0.002013   -0.005970   -0.113284
H     0.188976   -2.306859   -0.594218    0.010035   -0.225329    0.360204
13
* Frequency(7)  142.7618
C     1.620921    0.404301    0.017510    0.004633   -0.012200   -0.147443
C     1.538793   -0.918996    0.122831    0.003908   -0.002617   -0.039722
N     0.234601   -1.585695    0.135243   -0.000264    0.014034    0.135452
C    -1.040912   -0.751065    0.042979   -0.001207   -0.011275   -0.134269
N    -0.812712    0.582634   -0.007057    0.026304   -0.094003   -1.121574
C     0.422968    1.262299   -0.089437    0.002492   -0.011475   -0.117279
O    -2.083996   -1.329202    0.025395   -0.016905    0.042648    0.529884
O     0.451881    2.461087   -0.237994   -0.014822    0.058033    0.702360
H     2.381955   -1.607761    0.199696    0.002122    0.003519    0.031674
H     0.141026   -2.168714    0.989767   -0.018343    0.291782    0.313870
H    -1.649653    1.167128   -0.077007    0.028804   -0.103143   -1.220120
H     2.590250    0.904539   -0.002279    0.002013   -0.005970   -0.113284
H     0.187820   -2.280898   -0.635719    0.010035   -0.225329    0.360204
13
* Frequency(7)  142.7618
C     1.620416    0.405630    0.033577    0.004633   -0.012200   -0.147443
C     1.538367   -0.918711    0.127160    0.003908   -0.002617   -0.039722
N     0.234630   -1.587225    0.120482   -0.000264    0.014034    0.135452
C    -1.040781   -0.749836    0.057611   -0.001207   -0.011275   -0.134269
N    -0.815578    0.592878    0.115165    0.026304   -0.094003   -1.121574
C     0.422696    1.263550   -0.076657    0.002492   -0.011475   -0.117279
O    -2.082154   -1.333849   -0.032349   -0.016905    0.042648    0.529884
O     0.453496    2.454763   -0.314533   -0.014822    0.058033    0.702360
H     2.381724   -1.608145    0.196244    0.002122    0.003519    0.031674
H     0.143024   -2.200510    0.955564   -0.018343    0.291782    0.313870
H    -1.652792    1.178368    0.055954    0.028804   -0.103143   -1.220120
H     2.590031    0.905189    0.010066    0.002013   -0.005970   -0.113284
H     0.186726   -2.256343   -0.674972    0.010035   -0.225329    0.360204
13
* Frequency(7)  142.7618
C     1.619995    0.406740    0.046983    0.004633   -0.012200   -0.147443
C     1.538012   -0.918473    0.130771    0.003908   -0.002617   -0.039722
N     0.234654   -1.588501    0.108167   -0.000264    0.014034    0.135452
C    -1.040671   -0.748811    0.069819   -0.001207   -0.011275   -0.134269
N    -0.817970    0.601425    0.217140    0.026304   -0.094003   -1.121574
C     0.422469    1.264593   -0.065994    0.002492   -0.011475   -0.117279
O    -2.080617   -1.337727   -0.080526   -0.016905    0.042648    0.529884
O     0.454844    2.449487   -0.378393   -0.014822    0.058033    0.702360
H     2.381531   -1.608465    0.193365    0.002122    0.003519    0.031674
H     0.144692   -2.227039    0.927026   -0.018343    0.291782    0.313870
H    -1.655411    1.187746    0.166890    0.028804   -0.103143   -1.220120
H     2.589848    0.905732    0.020366    0.002013   -0.005970   -0.113284
H     0.185814   -2.235856   -0.707722    0.010035   -0.225329    0.360204
13
* Frequency(7)  142.7618
C     1.619703    0.407508    0.056274    0.004633   -0.012200   -0.147443
C     1.537765   -0.918308    0.133274    0.003908   -0.002617   -0.039722
N     0.234671   -1.589385    0.099631   -0.000264    0.014034    0.135452
C    -1.040595   -0.748101    0.078280   -0.001207   -0.011275   -0.134269
N    -0.819627    0.607349    0.287819    0.026304   -0.094003   -1.121574
C     0.422312    1.265316   -0.058603    0.002492   -0.011475   -0.117279
O    -2.079551   -1.340415   -0.113918   -0.016905    0.042648    0.529884
O     0.455778    2.445830   -0.422654   -0.014822    0.058033    0.702360
H     2.381397   -1.608687    0.191369    0.002122    0.003519    0.031674
H     0.145848   -2.245427    0.907247   -0.018343    0.291782    0.313870
H    -1.657226    1.194245    0.243778    0.028804   -0.103143   -1.220120
H     2.589721    0.906108    0.027505    0.002013   -0.005970   -0.113284
H     0.185181   -2.221656   -0.730422    0.010035   -0.225329    0.360204
13
* Frequency(7)  142.7618
C     1.619572    0.407854    0.060445    0.004633   -0.012200   -0.147443
C     1.537655   -0.918234    0.134398    0.003908   -0.002617   -0.039722
N     0.234678   -1.589782    0.095800   -0.000264    0.014034    0.135452
C    -1.040561   -0.747782    0.082078   -0.001207   -0.011275   -0.134269
N    -0.820371    0.610008    0.319541    0.026304   -0.094003   -1.121574
C     0.422242    1.265641   -0.055286    0.002492   -0.011475   -0.117279
O    -2.079073   -1.341621   -0.128905   -0.016905    0.042648    0.529884
O     0.456197    2.444189   -0.442519   -0.014822    0.058033    0.702360
H     2.381337   -1.608786    0.190473    0.002122    0.003519    0.031674
H     0.146367   -2.253680    0.898370   -0.018343    0.291782    0.313870
H    -1.658041    1.197163    0.278288    0.028804   -0.103143   -1.220120
H     2.589664    0.906277    0.030709    0.002013   -0.005970   -0.113284
H     0.184897   -2.215283   -0.740610    0.010035   -0.225329    0.360204
13
* Frequency(7)  142.7618
C     1.619616    0.407737    0.059042    0.004633   -0.012200   -0.147443
C     1.537692   -0.918259    0.134020    0.003908   -0.002617   -0.039722
N     0.234675   -1.589649    0.097089   -0.000264    0.014034    0.135452
C    -1.040572   -0.747889    0.080801   -0.001207   -0.011275   -0.134269
N    -0.820121    0.609113    0.308870    0.026304   -0.094003   -1.121574
C     0.422266    1.265532   -0.056402    0.002492   -0.011475   -0.117279
O    -2.079234   -1.341215   -0.123864   -0.016905    0.042648    0.529884
O     0.456056    2.444741   -0.435837   -0.014822    0.058033    0.702360
H     2.381357   -1.608753    0.190774    0.002122    0.003519    0.031674
H     0.146192   -2.250903    0.901356   -0.018343    0.291782    0.313870
H    -1.657767    1.196181    0.266679    0.028804   -0.103143   -1.220120
H     2.589683    0.906220    0.029631    0.002013   -0.005970   -0.113284
H     0.184993   -2.217427   -0.737182    0.010035   -0.225329    0.360204
13
* Frequency(7)  142.7618
C     1.619831    0.407173    0.052218    0.004633   -0.012200   -0.147443
C     1.537873   -0.918380    0.132182    0.003908   -0.002617   -0.039722
N     0.234663   -1.588999    0.103358   -0.000264    0.014034    0.135452
C    -1.040628   -0.748411    0.074586   -0.001207   -0.011275   -0.134269
N    -0.818904    0.604763    0.256962    0.026304   -0.094003   -1.121574
C     0.422381    1.265000   -0.061830    0.002492   -0.011475   -0.117279
O    -2.080017   -1.339241   -0.099340   -0.016905    0.042648    0.529884
O     0.455370    2.447427   -0.403330   -0.014822    0.058033    0.702360
H     2.381455   -1.608590    0.192240    0.002122    0.003519    0.031674
H     0.145344   -2.237399    0.915882   -0.018343    0.291782    0.313870
H    -1.656434    1.191408    0.210210    0.028804   -0.103143   -1.220120
H     2.589776    0.905944    0.024388    0.002013   -0.005970   -0.113284
H     0.185457   -2.227855   -0.720511    0.010035   -0.225329    0.360204
13
* Frequency(7)  142.7618
C     1.620192    0.406221    0.040712    0.004633   -0.012200   -0.147443
C     1.538178   -0.918585    0.129082    0.003908   -0.002617   -0.039722
N     0.234643   -1.587904    0.113927   -0.000264    0.014034    0.135452
C    -1.040722   -0.749291    0.064109   -0.001207   -0.011275   -0.134269
N    -0.816851    0.597427    0.169441    0.026304   -0.094003   -1.121574
C     0.422575    1.264105   -0.070982    0.002492   -0.011475   -0.117279
O    -2.081336   -1.335913   -0.057991   -0.016905    0.042648    0.529884
O     0.454214    2.451955   -0.348522   -0.014822    0.058033    0.702360
H     2.381621   -1.608315    0.194712    0.002122    0.003519    0.031674
H     0.143912   -2.214630    0.940375   -0.018343    0.291782    0.313870
H    -1.654186    1.183359    0.114999    0.028804   -0.103143   -1.220120
H     2.589933    0.905478    0.015548    0.002013   -0.005970   -0.113284
H     0.186240   -2.245439   -0.692403    0.010035   -0.225329    0.360204
13
* Frequency(7)  142.7618
C     1.620662    0.404985    0.025772    0.004633   -0.012200   -0.147443
C     1.538574   -0.918850    0.125057    0.003908   -0.002617   -0.039722
N     0.234616   -1.586482    0.127653   -0.000264    0.014034    0.135452
C    -1.040845   -0.750433    0.050503   -0.001207   -0.011275   -0.134269
N    -0.814186    0.587902    0.055792    0.026304   -0.094003   -1.121574
C     0.422828    1.262942   -0.082865    0.002492   -0.011475   -0.117279
O    -2.083049   -1.331592   -0.004298   -0.016905    0.042648    0.529884
O     0.452712    2.457836   -0.277352   -0.014822    0.058033    0.702360
H     2.381836   -1.607959    0.197921    0.002122    0.003519    0.031674
H     0.142053   -2.185064    0.972179   -0.018343    0.291782    0.313870
H    -1.651267    1.172908   -0.008635    0.028804   -0.103143   -1.220120
H     2.590137    0.904873    0.004069    0.002013   -0.005970   -0.113284
H     0.187257   -2.268271   -0.655904    0.010035   -0.225329    0.360204
13
* Frequency(7)  142.7618
C     1.621188    0.403598    0.009016    0.004633   -0.012200   -0.147443
C     1.539018   -0.919147    0.120543    0.003908   -0.002617   -0.039722
N     0.234586   -1.584887    0.143046   -0.000264    0.014034    0.135452
C    -1.040982   -0.751715    0.035244   -0.001207   -0.011275   -0.134269
N    -0.811196    0.577219   -0.071669    0.026304   -0.094003   -1.121574
C     0.423111    1.261638   -0.096194    0.002492   -0.011475   -0.117279
O    -2.084970   -1.326745    0.055920   -0.016905    0.042648    0.529884
O     0.451027    2.464431   -0.197533   -0.014822    0.058033    0.702360
H     2.382077   -1.607559    0.201521    0.002122    0.003519    0.031674
H     0.139969   -2.151905    1.007849   -0.018343    0.291782    0.313870
H    -1.647994    1.161186   -0.147295    0.028804   -0.103143   -1.220120
H     2.590366    0.904195   -0.008805    0.002013   -0.005970   -0.113284
H     0.188398   -2.293879   -0.614969    0.010035   -0.225329    0.360204
