13
* (null), Energy   -1000.0000000
C     1.621188    0.403598    0.009016    0.267051   -0.162725    0.021189
C     1.539018   -0.919147    0.120543   -0.249203   -0.127058    0.007251
N     0.234586   -1.584887    0.143046    0.125731    0.078547   -0.001973
C    -1.040982   -0.751715    0.035244    0.065401   -0.157478    0.009219
N    -0.811196    0.577219   -0.071669    0.047613    0.057599   -0.002424
C     0.423111    1.261638   -0.096194   -0.222666   -0.033918   -0.003286
O    -2.084970   -1.326745    0.055920   -0.059786   -0.005813   -0.000007
O     0.451027    2.464431   -0.197533    0.018943    0.076766   -0.006019
H     2.382077   -1.607559    0.201521    0.802792    1.177937   -0.080786
H     0.139969   -2.151905    1.007849   -0.456788    0.094877   -0.042938
H    -1.647994    1.161186   -0.147295    0.346562    0.487897   -0.037700
H     2.590366    0.904195   -0.008805   -0.231838    0.836985   -0.081434
H     0.188398   -2.293879   -0.614969   -0.559970    0.117852   -0.009977
13
* Frequency(27) 1379.2656
C     1.651537    0.385105    0.011424    0.267051   -0.162725    0.021189
C     1.510697   -0.933587    0.121367   -0.249203   -0.127058    0.007251
N     0.248875   -1.575960    0.142822    0.125731    0.078547   -0.001973
C    -1.033549   -0.769611    0.036292    0.065401   -0.157478    0.009219
N    -0.805785    0.583765   -0.071944    0.047613    0.057599   -0.002424
C     0.397806    1.257784   -0.096567   -0.222666   -0.033918   -0.003286
O    -2.091764   -1.327405    0.055920   -0.059786   -0.005813   -0.000007
O     0.453180    2.473155   -0.198217    0.018943    0.076766   -0.006019
H     2.473310   -1.473692    0.192340    0.802792    1.177937   -0.080786
H     0.088057   -2.141122    1.002969   -0.456788    0.094877   -0.042938
H    -1.608609    1.216633   -0.151580    0.346562    0.487897   -0.037700
H     2.564019    0.999314   -0.018059   -0.231838    0.836985   -0.081434
H     0.124760   -2.280485   -0.616103   -0.559970    0.117852   -0.009977
13
* Frequency(27) 1379.2656
C     1.678597    0.368616    0.013571    0.267051   -0.162725    0.021189
C     1.485446   -0.946462    0.122101   -0.249203   -0.127058    0.007251
N     0.261615   -1.568001    0.142622    0.125731    0.078547   -0.001973
C    -1.026922   -0.785568    0.037226    0.065401   -0.157478    0.009219
N    -0.800961    0.589601   -0.072190    0.047613    0.057599   -0.002424
C     0.375244    1.254347   -0.096900   -0.222666   -0.033918   -0.003286
O    -2.097822   -1.327994    0.055919   -0.059786   -0.005813   -0.000007
O     0.455100    2.480933   -0.198827    0.018943    0.076766   -0.006019
H     2.554657   -1.354332    0.184154    0.802792    1.177937   -0.080786
H     0.041771   -2.131508    0.998618   -0.456788    0.094877   -0.042938
H    -1.573492    1.266071   -0.155400    0.346562    0.487897   -0.037700
H     2.540527    1.084125   -0.026311   -0.231838    0.836985   -0.081434
H     0.068018   -2.268544   -0.617114   -0.559970    0.117852   -0.009977
13
* Frequency(27) 1379.2656
C     1.699436    0.355918    0.015225    0.267051   -0.162725    0.021189
C     1.465999   -0.956376    0.122667   -0.249203   -0.127058    0.007251
N     0.271426   -1.561872    0.142468    0.125731    0.078547   -0.001973
C    -1.021819   -0.797857    0.037946    0.065401   -0.157478    0.009219
N    -0.797245    0.594096   -0.072379    0.047613    0.057599   -0.002424
C     0.357868    1.251700   -0.097156   -0.222666   -0.033918   -0.003286
O    -2.102488   -1.328448    0.055918   -0.059786   -0.005813   -0.000007
O     0.456578    2.486924   -0.199296    0.018943    0.076766   -0.006019
H     2.617302   -1.262413    0.177850    0.802792    1.177937   -0.080786
H     0.006126   -2.124105    0.995268   -0.456788    0.094877   -0.042938
H    -1.546449    1.304144   -0.158342    0.346562    0.487897   -0.037700
H     2.522435    1.149438   -0.032666   -0.231838    0.836985   -0.081434
H     0.024322   -2.259347   -0.617892   -0.559970    0.117852   -0.009977
13
* Frequency(27) 1379.2656
C     1.711796    0.348387    0.016205    0.267051   -0.162725    0.021189
C     1.454466   -0.962257    0.123003   -0.249203   -0.127058    0.007251
N     0.277245   -1.558237    0.142377    0.125731    0.078547   -0.001973
C    -1.018792   -0.805145    0.038372    0.065401   -0.157478    0.009219
N    -0.795042    0.596762   -0.072491    0.047613    0.057599   -0.002424
C     0.347563    1.250130   -0.097309   -0.222666   -0.033918   -0.003286
O    -2.105255   -1.328717    0.055918   -0.059786   -0.005813   -0.000007
O     0.457455    2.490477   -0.199575    0.018943    0.076766   -0.006019
H     2.654456   -1.207896    0.174111    0.802792    1.177937   -0.080786
H    -0.015015   -2.119714    0.993280   -0.456788    0.094877   -0.042938
H    -1.530409    1.326725   -0.160087    0.346562    0.487897   -0.037700
H     2.511706    1.188175   -0.036434   -0.231838    0.836985   -0.081434
H    -0.001594   -2.253893   -0.618354   -0.559970    0.117852   -0.009977
13
* Frequency(27) 1379.2656
C     1.714337    0.346839    0.016407    0.267051   -0.162725    0.021189
C     1.452095   -0.963466    0.123072   -0.249203   -0.127058    0.007251
N     0.278441   -1.557489    0.142358    0.125731    0.078547   -0.001973
C    -1.018170   -0.806644    0.038460    0.065401   -0.157478    0.009219
N    -0.794589    0.597310   -0.072514    0.047613    0.057599   -0.002424
C     0.345444    1.249808   -0.097340   -0.222666   -0.033918   -0.003286
O    -2.105824   -1.328772    0.055918   -0.059786   -0.005813   -0.000007
O     0.457635    2.491207   -0.199632    0.018943    0.076766   -0.006019
H     2.662094   -1.196689    0.173342    0.802792    1.177937   -0.080786
H    -0.019361   -2.118811    0.992872   -0.456788    0.094877   -0.042938
H    -1.527112    1.331367   -0.160445    0.346562    0.487897   -0.037700
H     2.509500    1.196139   -0.037209   -0.231838    0.836985   -0.081434
H    -0.006922   -2.252771   -0.618449   -0.559970    0.117852   -0.009977
13
* Frequency(27) 1379.2656
C     1.706784    0.351441    0.015807    0.267051   -0.162725    0.021189
C     1.459143   -0.959872    0.122867   -0.249203   -0.127058    0.007251
N     0.274885   -1.559711    0.142414    0.125731    0.078547   -0.001973
C    -1.020019   -0.802190    0.038199    0.065401   -0.157478    0.009219
N    -0.795935    0.595681   -0.072446    0.047613    0.057599   -0.002424
C     0.351742    1.250767   -0.097247   -0.222666   -0.033918   -0.003286
O    -2.104133   -1.328608    0.055918   -0.059786   -0.005813   -0.000007
O     0.457099    2.489036   -0.199462    0.018943    0.076766   -0.006019
H     2.639388   -1.230006    0.175627    0.802792    1.177937   -0.080786
H    -0.006441   -2.121495    0.994086   -0.456788    0.094877   -0.042938
H    -1.536914    1.317567   -0.159379    0.346562    0.487897   -0.037700
H     2.516057    1.172466   -0.034906   -0.231838    0.836985   -0.081434
H     0.008916   -2.256105   -0.618167   -0.559970    0.117852   -0.009977
13
* Frequency(27) 1379.2656
C     1.689955    0.361696    0.014472    0.267051   -0.162725    0.021189
C     1.474847   -0.951865    0.122410   -0.249203   -0.127058    0.007251
N     0.266962   -1.564661    0.142538    0.125731    0.078547   -0.001973
C    -1.024141   -0.792266    0.037618    0.065401   -0.157478    0.009219
N    -0.798936    0.592051   -0.072293    0.047613    0.057599   -0.002424
C     0.365774    1.252904   -0.097040   -0.222666   -0.033918   -0.003286
O    -2.100365   -1.328242    0.055919   -0.059786   -0.005813   -0.000007
O     0.455905    2.484198   -0.199083    0.018943    0.076766   -0.006019
H     2.588799   -1.304236    0.180718    0.802792    1.177937   -0.080786
H     0.022345   -2.127473    0.996792   -0.456788    0.094877   -0.042938
H    -1.558753    1.286821   -0.157003    0.346562    0.487897   -0.037700
H     2.530667    1.119721   -0.029774   -0.231838    0.836985   -0.081434
H     0.044204   -2.263531   -0.617538   -0.559970    0.117852   -0.009977
13
* Frequency(27) 1379.2656
C     1.665674    0.376491    0.012546    0.267051   -0.162725    0.021189
C     1.497505   -0.940313    0.121751   -0.249203   -0.127058    0.007251
N     0.255530   -1.571802    0.142717    0.125731    0.078547   -0.001973
C    -1.030087   -0.777948    0.036780    0.065401   -0.157478    0.009219
N    -0.803265    0.586814   -0.072073    0.047613    0.057599   -0.002424
C     0.386019    1.255988   -0.096741   -0.222666   -0.033918   -0.003286
O    -2.094929   -1.327713    0.055919   -0.059786   -0.005813   -0.000007
O     0.454183    2.477218   -0.198535    0.018943    0.076766   -0.006019
H     2.515807   -1.411336    0.188063    0.802792    1.177937   -0.080786
H     0.063877   -2.136100    1.000696   -0.456788    0.094877   -0.042938
H    -1.590263    1.242461   -0.153576    0.346562    0.487897   -0.037700
H     2.551746    1.043621   -0.022370   -0.231838    0.836985   -0.081434
H     0.095117   -2.274247   -0.616631   -0.559970    0.117852   -0.009977
13
* Frequency(27) 1379.2656
C     1.636572    0.394224    0.010237    0.267051   -0.162725    0.021189
C     1.524662   -0.926467    0.120960   -0.249203   -0.127058    0.007251
N     0.241829   -1.580362    0.142932    0.125731    0.078547   -0.001973
C    -1.037214   -0.760787    0.035776    0.065401   -0.157478    0.009219
N    -0.808453    0.580537   -0.071808    0.047613    0.057599   -0.002424
C     0.410284    1.259684   -0.096383   -0.222666   -0.033918   -0.003286
O    -2.088414   -1.327080    0.055920   -0.059786   -0.005813   -0.000007
O     0.452119    2.468853   -0.197880    0.018943    0.076766   -0.006019
H     2.428324   -1.539700    0.196867    0.802792    1.177937   -0.080786
H     0.113654   -2.146439    1.005375   -0.456788    0.094877   -0.042938
H    -1.628029    1.189293   -0.149467    0.346562    0.487897   -0.037700
H     2.577010    0.952412   -0.013496   -0.231838    0.836985   -0.081434
H     0.156139   -2.287089   -0.615544   -0.559970    0.117852   -0.009977
13
* Frequency(27) 1379.2656
C     1.605804    0.412972    0.007795    0.267051   -0.162725    0.021189
C     1.553374   -0.911828    0.120125   -0.249203   -0.127058    0.007251
N     0.227343   -1.589412    0.143160    0.125731    0.078547   -0.001973
C    -1.044750   -0.742643    0.034713    0.065401   -0.157478    0.009219
N    -0.813939    0.573901   -0.071529    0.047613    0.057599   -0.002424
C     0.435938    1.263592   -0.096004   -0.222666   -0.033918   -0.003286
O    -2.081526   -1.326410    0.055921   -0.059786   -0.005813   -0.000007
O     0.449936    2.460008   -0.197186    0.018943    0.076766   -0.006019
H     2.335830   -1.675417    0.206175    0.802792    1.177937   -0.080786
H     0.166284   -2.157370    1.010322   -0.456788    0.094877   -0.042938
H    -1.667959    1.133079   -0.145124    0.346562    0.487897   -0.037700
H     2.603722    0.855978   -0.004113   -0.231838    0.836985   -0.081434
H     0.220656   -2.300668   -0.614394   -0.559970    0.117852   -0.009977
13
* Frequency(27) 1379.2656
C     1.576702    0.430705    0.005486    0.267051   -0.162725    0.021189
C     1.580531   -0.897982    0.119335   -0.249203   -0.127058    0.007251
N     0.213641   -1.597971    0.143375    0.125731    0.078547   -0.001973
C    -1.051877   -0.725482    0.033709    0.065401   -0.157478    0.009219
N    -0.819128    0.567624   -0.071265    0.047613    0.057599   -0.002424
C     0.460203    1.267288   -0.095646   -0.222666   -0.033918   -0.003286
O    -2.075010   -1.325777    0.055921   -0.059786   -0.005813   -0.000007
O     0.447872    2.451643   -0.196530    0.018943    0.076766   -0.006019
H     2.248347   -1.803781    0.214978    0.802792    1.177937   -0.080786
H     0.216061   -2.167709    1.015001   -0.456788    0.094877   -0.042938
H    -1.705725    1.079911   -0.141015    0.346562    0.487897   -0.037700
H     2.628986    0.764769    0.004761   -0.231838    0.836985   -0.081434
H     0.281678   -2.313511   -0.613307   -0.559970    0.117852   -0.009977
13
* Frequency(27) 1379.2656
C     1.552422    0.445500    0.003560    0.267051   -0.162725    0.021189
C     1.603189   -0.886429    0.118676   -0.249203   -0.127058    0.007251
N     0.202210   -1.605113    0.143554    0.125731    0.078547   -0.001973
C    -1.057823   -0.711163    0.032871    0.065401   -0.157478    0.009219
N    -0.823457    0.562387   -0.071045    0.047613    0.057599   -0.002424
C     0.480448    1.270372   -0.095347   -0.222666   -0.033918   -0.003286
O    -2.069575   -1.325248    0.055922   -0.059786   -0.005813   -0.000007
O     0.446150    2.444663   -0.195983    0.018943    0.076766   -0.006019
H     2.175355   -1.910881    0.222323    0.802792    1.177937   -0.080786
H     0.257593   -2.176336    1.018905   -0.456788    0.094877   -0.042938
H    -1.737235    1.035551   -0.137588    0.346562    0.487897   -0.037700
H     2.650065    0.688668    0.012165   -0.231838    0.836985   -0.081434
H     0.332592   -2.324226   -0.612400   -0.559970    0.117852   -0.009977
13
* Frequency(27) 1379.2656
C     1.535593    0.455755    0.002225    0.267051   -0.162725    0.021189
C     1.618893   -0.878422    0.118219   -0.249203   -0.127058    0.007251
N     0.194287   -1.610063    0.143679    0.125731    0.078547   -0.001973
C    -1.061944   -0.701240    0.032290    0.065401   -0.157478    0.009219
N    -0.826457    0.558757   -0.070892    0.047613    0.057599   -0.002424
C     0.494480    1.272510   -0.095140   -0.222666   -0.033918   -0.003286
O    -2.065807   -1.324882    0.055922   -0.059786   -0.005813   -0.000007
O     0.444956    2.439825   -0.195604    0.018943    0.076766   -0.006019
H     2.124766   -1.985112    0.227414    0.802792    1.177937   -0.080786
H     0.286379   -2.182314    1.021611   -0.456788    0.094877   -0.042938
H    -1.759074    1.004805   -0.135212    0.346562    0.487897   -0.037700
H     2.664675    0.635924    0.017297   -0.231838    0.836985   -0.081434
H     0.367879   -2.331653   -0.611771   -0.559970    0.117852   -0.009977
13
* Frequency(27) 1379.2656
C     1.528039    0.460358    0.001625    0.267051   -0.162725    0.021189
C     1.625941   -0.874829    0.118014   -0.249203   -0.127058    0.007251
N     0.190730   -1.612284    0.143734    0.125731    0.078547   -0.001973
C    -1.063794   -0.696785    0.032029    0.065401   -0.157478    0.009219
N    -0.827804    0.557128   -0.070823    0.047613    0.057599   -0.002424
C     0.500778    1.273469   -0.095047   -0.222666   -0.033918   -0.003286
O    -2.064116   -1.324717    0.055923   -0.059786   -0.005813   -0.000007
O     0.444420    2.437654   -0.195433    0.018943    0.076766   -0.006019
H     2.102059   -2.018429    0.229699    0.802792    1.177937   -0.080786
H     0.299299   -2.184998    1.022826   -0.456788    0.094877   -0.042938
H    -1.768876    0.991005   -0.134146    0.346562    0.487897   -0.037700
H     2.671232    0.612251    0.019600   -0.231838    0.836985   -0.081434
H     0.383718   -2.334986   -0.611489   -0.559970    0.117852   -0.009977
13
* Frequency(27) 1379.2656
C     1.530580    0.458809    0.001827    0.267051   -0.162725    0.021189
C     1.623570   -0.876038    0.118083   -0.249203   -0.127058    0.007251
N     0.191927   -1.611537    0.143716    0.125731    0.078547   -0.001973
C    -1.063172   -0.698284    0.032117    0.065401   -0.157478    0.009219
N    -0.827351    0.557676   -0.070846    0.047613    0.057599   -0.002424
C     0.498660    1.273146   -0.095079   -0.222666   -0.033918   -0.003286
O    -2.064685   -1.324773    0.055923   -0.059786   -0.005813   -0.000007
O     0.444600    2.438385   -0.195491    0.018943    0.076766   -0.006019
H     2.109698   -2.007221    0.228931    0.802792    1.177937   -0.080786
H     0.294952   -2.184095    1.022417   -0.456788    0.094877   -0.042938
H    -1.765579    0.995648   -0.134504    0.346562    0.487897   -0.037700
H     2.669026    0.620214    0.018825   -0.231838    0.836985   -0.081434
H     0.378390   -2.333865   -0.611584   -0.559970    0.117852   -0.009977
13
* Frequency(27) 1379.2656
C     1.542940    0.451278    0.002808    0.267051   -0.162725    0.021189
C     1.612037   -0.881918    0.118418   -0.249203   -0.127058    0.007251
N     0.197746   -1.607902    0.143624    0.125731    0.078547   -0.001973
C    -1.060145   -0.705572    0.032543    0.065401   -0.157478    0.009219
N    -0.825147    0.560342   -0.070959    0.047613    0.057599   -0.002424
C     0.488354    1.271576   -0.095231   -0.222666   -0.033918   -0.003286
O    -2.067452   -1.325042    0.055922   -0.059786   -0.005813   -0.000007
O     0.445477    2.441938   -0.195769    0.018943    0.076766   -0.006019
H     2.146852   -1.952704    0.225192    0.802792    1.177937   -0.080786
H     0.273811   -2.179704    1.020430   -0.456788    0.094877   -0.042938
H    -1.749540    1.018228   -0.136249    0.346562    0.487897   -0.037700
H     2.658296    0.658951    0.015056   -0.231838    0.836985   -0.081434
H     0.352473   -2.328410   -0.612045   -0.559970    0.117852   -0.009977
13
* Frequency(27) 1379.2656
C     1.563779    0.438580    0.004461    0.267051   -0.162725    0.021189
C     1.592590   -0.891833    0.118984   -0.249203   -0.127058    0.007251
N     0.207557   -1.601772    0.143470    0.125731    0.078547   -0.001973
C    -1.055042   -0.717861    0.033263    0.065401   -0.157478    0.009219
N    -0.821432    0.564837   -0.071148    0.047613    0.057599   -0.002424
C     0.470979    1.268930   -0.095487   -0.222666   -0.033918   -0.003286
O    -2.072117   -1.325495    0.055922   -0.059786   -0.005813   -0.000007
O     0.446955    2.447928   -0.196239    0.018943    0.076766   -0.006019
H     2.209497   -1.860785    0.218888    0.802792    1.177937   -0.080786
H     0.238167   -2.172301    1.017079   -0.456788    0.094877   -0.042938
H    -1.722496    1.056301   -0.139191    0.346562    0.487897   -0.037700
H     2.640205    0.724264    0.008702   -0.231838    0.836985   -0.081434
H     0.308777   -2.319214   -0.612824   -0.559970    0.117852   -0.009977
13
* Frequency(27) 1379.2656
C     1.590839    0.422091    0.006608    0.267051   -0.162725    0.021189
C     1.567339   -0.904708    0.119719   -0.249203   -0.127058    0.007251
N     0.220297   -1.593813    0.143270    0.125731    0.078547   -0.001973
C    -1.048414   -0.733818    0.034197    0.065401   -0.157478    0.009219
N    -0.816607    0.570673   -0.071393    0.047613    0.057599   -0.002424
C     0.448416    1.265493   -0.095820   -0.222666   -0.033918   -0.003286
O    -2.078175   -1.326084    0.055921   -0.059786   -0.005813   -0.000007
O     0.448875    2.455707   -0.196849    0.018943    0.076766   -0.006019
H     2.290844   -1.741425    0.210702    0.802792    1.177937   -0.080786
H     0.191880   -2.162687    1.012728   -0.456788    0.094877   -0.042938
H    -1.687379    1.105739   -0.143011    0.346562    0.487897   -0.037700
H     2.616713    0.809076    0.000450   -0.231838    0.836985   -0.081434
H     0.252035   -2.307272   -0.613835   -0.559970    0.117852   -0.009977
13
* Frequency(27) 1379.2656
C     1.621188    0.403598    0.009016    0.267051   -0.162725    0.021189
C     1.539018   -0.919147    0.120543   -0.249203   -0.127058    0.007251
N     0.234586   -1.584887    0.143046    0.125731    0.078547   -0.001973
C    -1.040982   -0.751715    0.035244    0.065401   -0.157478    0.009219
N    -0.811196    0.577219   -0.071669    0.047613    0.057599   -0.002424
C     0.423111    1.261638   -0.096194   -0.222666   -0.033918   -0.003286
O    -2.084970   -1.326745    0.055920   -0.059786   -0.005813   -0.000007
O     0.451027    2.464431   -0.197533    0.018943    0.076766   -0.006019
H     2.382077   -1.607559    0.201521    0.802792    1.177937   -0.080786
H     0.139969   -2.151905    1.007849   -0.456788    0.094877   -0.042938
H    -1.647994    1.161186   -0.147295    0.346562    0.487897   -0.037700
H     2.590366    0.904195   -0.008805   -0.231838    0.836985   -0.081434
H     0.188398   -2.293879   -0.614969   -0.559970    0.117852   -0.009977
