13
* (null), Energy   -1000.0000000
C     1.365855    0.533997   -0.017795    0.006347   -0.029193   -0.335959
C     1.281863   -0.788655    0.093257    0.003902   -0.007485   -0.069480
N    -0.021011   -1.450395    0.118437    0.002747   -0.009332   -0.121482
C    -1.289878   -0.622329    0.007801   -0.004930    0.012641    0.157693
N    -1.064188    0.706802   -0.097341    0.007929   -0.018922   -0.212136
C     0.168081    1.391376   -0.119566   -0.019366    0.058813    0.702937
O    -2.334795   -1.198357    0.024143    0.000238   -0.003336   -0.034894
O     0.193513    2.595440   -0.217241    0.005194   -0.013195   -0.187021
H     2.123010   -1.478478    0.173803   -0.035264    0.135572    1.581108
H    -0.114939   -2.012404    0.984263    0.218126    0.309081    0.104449
H    -1.901448    1.289086   -0.172072   -0.006638    0.030119    0.335368
H     2.334895    1.034094   -0.036100   -0.016667    0.048800    0.564185
H    -0.071619   -2.162707   -0.633029   -0.226750   -0.282960    0.149133
13
* Frequency(17)  807.4992
C     1.366576    0.530680   -0.055975    0.006347   -0.029193   -0.335959
C     1.282306   -0.789506    0.085361    0.003902   -0.007485   -0.069480
N    -0.020698   -1.451456    0.104631    0.002747   -0.009332   -0.121482
C    -1.290438   -0.620893    0.025722   -0.004930    0.012641    0.157693
N    -1.063287    0.704651   -0.121449    0.007929   -0.018922   -0.212136
C     0.165880    1.398060   -0.039681   -0.019366    0.058813    0.702937
O    -2.334768   -1.198736    0.020178    0.000238   -0.003336   -0.034894
O     0.194103    2.593941   -0.238495    0.005194   -0.013195   -0.187021
H     2.119002   -1.463071    0.353488   -0.035264    0.135572    1.581108
H    -0.090150   -1.977279    0.996133    0.218126    0.309081    0.104449
H    -1.902202    1.292509   -0.133960   -0.006638    0.030119    0.335368
H     2.333001    1.039640    0.028017   -0.016667    0.048800    0.564185
H    -0.097388   -2.194863   -0.616080   -0.226750   -0.282960    0.149133
13
* Frequency(17)  807.4992
C     1.367219    0.527722   -0.090018    0.006347   -0.029193   -0.335959
C     1.282702   -0.790265    0.078320    0.003902   -0.007485   -0.069480
N    -0.020420   -1.452401    0.092322    0.002747   -0.009332   -0.121482
C    -1.290937   -0.619612    0.041701   -0.004930    0.012641    0.157693
N    -1.062483    0.702734   -0.142945    0.007929   -0.018922   -0.212136
C     0.163918    1.404019    0.031547   -0.019366    0.058813    0.702937
O    -2.334744   -1.199074    0.016642    0.000238   -0.003336   -0.034894
O     0.194629    2.592604   -0.257446    0.005194   -0.013195   -0.187021
H     2.115429   -1.449333    0.513701   -0.035264    0.135572    1.581108
H    -0.068047   -1.945959    1.006717    0.218126    0.309081    0.104449
H    -1.902875    1.295561   -0.099977   -0.006638    0.030119    0.335368
H     2.331312    1.044585    0.085185   -0.016667    0.048800    0.564185
H    -0.120364   -2.223536   -0.600969   -0.226750   -0.282960    0.149133
13
* Frequency(17)  807.4992
C     1.367715    0.525444   -0.116234    0.006347   -0.029193   -0.335959
C     1.283006   -0.790849    0.072899    0.003902   -0.007485   -0.069480
N    -0.020206   -1.453129    0.082842    0.002747   -0.009332   -0.121482
C    -1.291322   -0.618625    0.054006   -0.004930    0.012641    0.157693
N    -1.061865    0.701257   -0.159499    0.007929   -0.018922   -0.212136
C     0.162407    1.408609    0.086400   -0.019366    0.058813    0.702937
O    -2.334725   -1.199335    0.013919    0.000238   -0.003336   -0.034894
O     0.195035    2.591574   -0.272040    0.005194   -0.013195   -0.187021
H     2.112677   -1.438754    0.637081   -0.035264    0.135572    1.581108
H    -0.051026   -1.921841    1.014868    0.218126    0.309081    0.104449
H    -1.903393    1.297911   -0.073807   -0.006638    0.030119    0.335368
H     2.330011    1.048393    0.129211   -0.016667    0.048800    0.564185
H    -0.138059   -2.245616   -0.589331   -0.226750   -0.282960    0.149133
13
* Frequency(17)  807.4992
C     1.368008    0.524093   -0.131783    0.006347   -0.029193   -0.335959
C     1.283187   -0.791195    0.069683    0.003902   -0.007485   -0.069480
N    -0.020079   -1.453561    0.077220    0.002747   -0.009332   -0.121482
C    -1.291550   -0.618040    0.061305   -0.004930    0.012641    0.157693
N    -1.061498    0.700382   -0.169317    0.007929   -0.018922   -0.212136
C     0.161510    1.411330    0.118933   -0.019366    0.058813    0.702937
O    -2.334714   -1.199489    0.012304    0.000238   -0.003336   -0.034894
O     0.195275    2.590963   -0.280695    0.005194   -0.013195   -0.187021
H     2.111045   -1.432480    0.710258   -0.035264    0.135572    1.581108
H    -0.040931   -1.907536    1.019702    0.218126    0.309081    0.104449
H    -1.903700    1.299305   -0.058285   -0.006638    0.030119    0.335368
H     2.329240    1.050651    0.155322   -0.016667    0.048800    0.564185
H    -0.148553   -2.258712   -0.582429   -0.226750   -0.282960    0.149133
13
* Frequency(17)  807.4992
C     1.368069    0.523815   -0.134979    0.006347   -0.029193   -0.335959
C     1.283224   -0.791266    0.069022    0.003902   -0.007485   -0.069480
N    -0.020052   -1.453650    0.076064    0.002747   -0.009332   -0.121482
C    -1.291597   -0.617920    0.062805   -0.004930    0.012641    0.157693
N    -1.061422    0.700202   -0.171335    0.007929   -0.018922   -0.212136
C     0.161326    1.411890    0.125621   -0.019366    0.058813    0.702937
O    -2.334712   -1.199521    0.011972    0.000238   -0.003336   -0.034894
O     0.195325    2.590838   -0.282475    0.005194   -0.013195   -0.187021
H     2.110710   -1.431190    0.725301   -0.035264    0.135572    1.581108
H    -0.038855   -1.904595    1.020696    0.218126    0.309081    0.104449
H    -1.903763    1.299592   -0.055094   -0.006638    0.030119    0.335368
H     2.329081    1.051116    0.160690   -0.016667    0.048800    0.564185
H    -0.150710   -2.261404   -0.581010   -0.226750   -0.282960    0.149133
13
* Frequency(17)  807.4992
C     1.367889    0.524641   -0.125477    0.006347   -0.029193   -0.335959
C     1.283114   -0.791055    0.070987    0.003902   -0.007485   -0.069480
N    -0.020130   -1.453386    0.079500    0.002747   -0.009332   -0.121482
C    -1.291458   -0.618278    0.058345   -0.004930    0.012641    0.157693
N    -1.061647    0.700737   -0.165335    0.007929   -0.018922   -0.212136
C     0.161874    1.410227    0.105739   -0.019366    0.058813    0.702937
O    -2.334719   -1.199426    0.012959    0.000238   -0.003336   -0.034894
O     0.195178    2.591211   -0.277185    0.005194   -0.013195   -0.187021
H     2.111707   -1.435024    0.680581   -0.035264    0.135572    1.581108
H    -0.045025   -1.913337    1.017741    0.218126    0.309081    0.104449
H    -1.903575    1.298740   -0.064580   -0.006638    0.030119    0.335368
H     2.329553    1.049736    0.144733   -0.016667    0.048800    0.564185
H    -0.144297   -2.253401   -0.585228   -0.226750   -0.282960    0.149133
13
* Frequency(17)  807.4992
C     1.367489    0.526480   -0.104306    0.006347   -0.029193   -0.335959
C     1.282868   -0.790583    0.075365    0.003902   -0.007485   -0.069480
N    -0.020303   -1.452798    0.087155    0.002747   -0.009332   -0.121482
C    -1.291147   -0.619074    0.048407   -0.004930    0.012641    0.157693
N    -1.062146    0.701929   -0.151967    0.007929   -0.018922   -0.212136
C     0.163094    1.406520    0.061442   -0.019366    0.058813    0.702937
O    -2.334734   -1.199216    0.015158    0.000238   -0.003336   -0.034894
O     0.194850    2.592043   -0.265400    0.005194   -0.013195   -0.187021
H     2.113929   -1.443568    0.580944   -0.035264    0.135572    1.581108
H    -0.058770   -1.932815    1.011159    0.218126    0.309081    0.104449
H    -1.903157    1.296842   -0.085714   -0.006638    0.030119    0.335368
H     2.330603    1.046660    0.109179   -0.016667    0.048800    0.564185
H    -0.130008   -2.235570   -0.594626   -0.226750   -0.282960    0.149133
13
* Frequency(17)  807.4992
C     1.366912    0.529134   -0.073760    0.006347   -0.029193   -0.335959
C     1.282513   -0.789902    0.081683    0.003902   -0.007485   -0.069480
N    -0.020553   -1.451950    0.098201    0.002747   -0.009332   -0.121482
C    -1.290699   -0.620224    0.034070   -0.004930    0.012641    0.157693
N    -1.062867    0.703650   -0.132679    0.007929   -0.018922   -0.212136
C     0.164855    1.401173   -0.002470   -0.019366    0.058813    0.702937
O    -2.334755   -1.198913    0.018330    0.000238   -0.003336   -0.034894
O     0.194378    2.593242   -0.248395    0.005194   -0.013195   -0.187021
H     2.117136   -1.455894    0.437187   -0.035264    0.135572    1.581108
H    -0.078603   -1.960917    1.001663    0.218126    0.309081    0.104449
H    -1.902554    1.294103   -0.116206   -0.006638    0.030119    0.335368
H     2.332118    1.042223    0.057883   -0.016667    0.048800    0.564185
H    -0.109391   -2.209842   -0.608186   -0.226750   -0.282960    0.149133
13
* Frequency(17)  807.4992
C     1.366221    0.532316   -0.037149    0.006347   -0.029193   -0.335959
C     1.282088   -0.789087    0.089254    0.003902   -0.007485   -0.069480
N    -0.020852   -1.450933    0.111439    0.002747   -0.009332   -0.121482
C    -1.290162   -0.621601    0.016886   -0.004930    0.012641    0.157693
N    -1.063731    0.705712   -0.109562    0.007929   -0.018922   -0.212136
C     0.166965    1.394764   -0.079071   -0.019366    0.058813    0.702937
O    -2.334781   -1.198549    0.022133    0.000238   -0.003336   -0.034894
O     0.193812    2.594680   -0.228015    0.005194   -0.013195   -0.187021
H     2.120979   -1.470668    0.264888   -0.035264    0.135572    1.581108
H    -0.102373   -1.994598    0.990280    0.218126    0.309081    0.104449
H    -1.901830    1.290821   -0.152753   -0.006638    0.030119    0.335368
H     2.333935    1.036905   -0.003598   -0.016667    0.048800    0.564185
H    -0.084682   -2.179007   -0.624437   -0.226750   -0.282960    0.149133
13
* Frequency(17)  807.4992
C     1.365489    0.535679    0.001559    0.006347   -0.029193   -0.335959
C     1.281638   -0.788224    0.097259    0.003902   -0.007485   -0.069480
N    -0.021169   -1.449858    0.125436    0.002747   -0.009332   -0.121482
C    -1.289594   -0.623058   -0.001283   -0.004930    0.012641    0.157693
N    -1.064645    0.707892   -0.085120    0.007929   -0.018922   -0.212136
C     0.169197    1.387988   -0.160061   -0.019366    0.058813    0.702937
O    -2.334809   -1.198165    0.026153    0.000238   -0.003336   -0.034894
O     0.193214    2.596200   -0.206467    0.005194   -0.013195   -0.187021
H     2.125042   -1.486288    0.082719   -0.035264    0.135572    1.581108
H    -0.127504   -2.030210    0.978246    0.218126    0.309081    0.104449
H    -1.901066    1.287351   -0.191392   -0.006638    0.030119    0.335368
H     2.335855    1.031283   -0.068602   -0.016667    0.048800    0.564185
H    -0.058556   -2.146406   -0.641620   -0.226750   -0.282960    0.149133
13
* Frequency(17)  807.4992
C     1.364798    0.538860    0.038169    0.006347   -0.029193   -0.335959
C     1.281213   -0.787409    0.104831    0.003902   -0.007485   -0.069480
N    -0.021468   -1.448841    0.138674    0.002747   -0.009332   -0.121482
C    -1.289056   -0.624435   -0.018468   -0.004930    0.012641    0.157693
N    -1.065509    0.709954   -0.062003    0.007929   -0.018922   -0.212136
C     0.171307    1.381579   -0.236663   -0.019366    0.058813    0.702937
O    -2.334835   -1.197801    0.029956    0.000238   -0.003336   -0.034894
O     0.192647    2.597638   -0.186087    0.005194   -0.013195   -0.187021
H     2.128884   -1.501061   -0.089580   -0.035264    0.135572    1.581108
H    -0.151274   -2.063891    0.966864    0.218126    0.309081    0.104449
H    -1.900342    1.284069   -0.227939   -0.006638    0.030119    0.335368
H     2.337671    1.025965   -0.130083   -0.016667    0.048800    0.564185
H    -0.033847   -2.115571   -0.657872   -0.226750   -0.282960    0.149133
13
* Frequency(17)  807.4992
C     1.364221    0.541515    0.068715    0.006347   -0.029193   -0.335959
C     1.280858   -0.786728    0.111148    0.003902   -0.007485   -0.069480
N    -0.021718   -1.447992    0.149719    0.002747   -0.009332   -0.121482
C    -1.288608   -0.625585   -0.032805   -0.004930    0.012641    0.157693
N    -1.066229    0.711674   -0.042715    0.007929   -0.018922   -0.212136
C     0.173068    1.376231   -0.300575   -0.019366    0.058813    0.702937
O    -2.334856   -1.197498    0.033129    0.000238   -0.003336   -0.034894
O     0.192175    2.598838   -0.169083    0.005194   -0.013195   -0.187021
H     2.132091   -1.513388   -0.233337   -0.035264    0.135572    1.581108
H    -0.171107   -2.091993    0.957367    0.218126    0.309081    0.104449
H    -1.899739    1.281330   -0.258431   -0.006638    0.030119    0.335368
H     2.339187    1.021528   -0.181379   -0.016667    0.048800    0.564185
H    -0.013230   -2.089843   -0.671431   -0.226750   -0.282960    0.149133
13
* Frequency(17)  807.4992
C     1.363821    0.543354    0.089886    0.006347   -0.029193   -0.335959
C     1.280612   -0.786256    0.115526    0.003902   -0.007485   -0.069480
N    -0.021891   -1.447404    0.157375    0.002747   -0.009332   -0.121482
C    -1.288297   -0.626381   -0.042743   -0.004930    0.012641    0.157693
N    -1.066729    0.712867   -0.029347    0.007929   -0.018922   -0.212136
C     0.174288    1.372525   -0.344872   -0.019366    0.058813    0.702937
O    -2.334871   -1.197288    0.035328    0.000238   -0.003336   -0.034894
O     0.191848    2.599669   -0.157297    0.005194   -0.013195   -0.187021
H     2.134313   -1.521931   -0.332974   -0.035264    0.135572    1.581108
H    -0.184853   -2.111471    0.950785    0.218126    0.309081    0.104449
H    -1.899320    1.279432   -0.279565   -0.006638    0.030119    0.335368
H     2.340237    1.018453   -0.216933   -0.016667    0.048800    0.564185
H     0.001059   -2.072012   -0.680829   -0.226750   -0.282960    0.149133
13
* Frequency(17)  807.4992
C     1.363641    0.544180    0.099389    0.006347   -0.029193   -0.335959
C     1.280502   -0.786045    0.117492    0.003902   -0.007485   -0.069480
N    -0.021969   -1.447140    0.160811    0.002747   -0.009332   -0.121482
C    -1.288158   -0.626739   -0.047203   -0.004930    0.012641    0.157693
N    -1.066953    0.713402   -0.023347    0.007929   -0.018922   -0.212136
C     0.174836    1.370862   -0.364754   -0.019366    0.058813    0.702937
O    -2.334878   -1.197193    0.036314    0.000238   -0.003336   -0.034894
O     0.191701    2.600043   -0.152007    0.005194   -0.013195   -0.187021
H     2.135310   -1.525766   -0.377694   -0.035264    0.135572    1.581108
H    -0.191022   -2.120213    0.947831    0.218126    0.309081    0.104449
H    -1.899133    1.278580   -0.289051   -0.006638    0.030119    0.335368
H     2.340708    1.017072   -0.232890   -0.016667    0.048800    0.564185
H     0.007472   -2.064009   -0.685047   -0.226750   -0.282960    0.149133
13
* Frequency(17)  807.4992
C     1.363702    0.543902    0.096192    0.006347   -0.029193   -0.335959
C     1.280539   -0.786116    0.116831    0.003902   -0.007485   -0.069480
N    -0.021943   -1.447229    0.159655    0.002747   -0.009332   -0.121482
C    -1.288205   -0.626618   -0.045702   -0.004930    0.012641    0.157693
N    -1.066878    0.713222   -0.025366    0.007929   -0.018922   -0.212136
C     0.174652    1.371421   -0.358066   -0.019366    0.058813    0.702937
O    -2.334876   -1.197225    0.035982    0.000238   -0.003336   -0.034894
O     0.191750    2.599917   -0.153787    0.005194   -0.013195   -0.187021
H     2.134975   -1.524476   -0.362651   -0.035264    0.135572    1.581108
H    -0.188947   -2.117272    0.948825    0.218126    0.309081    0.104449
H    -1.899196    1.278867   -0.285860   -0.006638    0.030119    0.335368
H     2.340550    1.017537   -0.227522   -0.016667    0.048800    0.564185
H     0.005315   -2.066701   -0.683628   -0.226750   -0.282960    0.149133
13
* Frequency(17)  807.4992
C     1.363995    0.542551    0.080643    0.006347   -0.029193   -0.335959
C     1.280719   -0.786462    0.113615    0.003902   -0.007485   -0.069480
N    -0.021816   -1.447661    0.154033    0.002747   -0.009332   -0.121482
C    -1.288433   -0.626033   -0.038404   -0.004930    0.012641    0.157693
N    -1.066511    0.712346   -0.035184    0.007929   -0.018922   -0.212136
C     0.173756    1.374143   -0.325533   -0.019366    0.058813    0.702937
O    -2.334865   -1.197380    0.034367    0.000238   -0.003336   -0.034894
O     0.191991    2.599306   -0.162443    0.005194   -0.013195   -0.187021
H     2.133343   -1.518201   -0.289474   -0.035264    0.135572    1.581108
H    -0.178851   -2.102967    0.953659    0.218126    0.309081    0.104449
H    -1.899503    1.280261   -0.270338   -0.006638    0.030119    0.335368
H     2.339778    1.019795   -0.201411   -0.016667    0.048800    0.564185
H    -0.005179   -2.079797   -0.676726   -0.226750   -0.282960    0.149133
13
* Frequency(17)  807.4992
C     1.364491    0.540273    0.054427    0.006347   -0.029193   -0.335959
C     1.281024   -0.787046    0.108193    0.003902   -0.007485   -0.069480
N    -0.021601   -1.448389    0.144553    0.002747   -0.009332   -0.121482
C    -1.288818   -0.625047   -0.026099   -0.004930    0.012641    0.157693
N    -1.065892    0.710870   -0.051737    0.007929   -0.018922   -0.212136
C     0.172244    1.378733   -0.270680   -0.019366    0.058813    0.702937
O    -2.334846   -1.197640    0.031645    0.000238   -0.003336   -0.034894
O     0.192396    2.598277   -0.177036    0.005194   -0.013195   -0.187021
H     2.130591   -1.507622   -0.166094   -0.035264    0.135572    1.581108
H    -0.161830   -2.078849    0.961810    0.218126    0.309081    0.104449
H    -1.900021    1.282611   -0.244168   -0.006638    0.030119    0.335368
H     2.338478    1.023603   -0.157385   -0.016667    0.048800    0.564185
H    -0.022874   -2.101877   -0.665088   -0.226750   -0.282960    0.149133
13
* Frequency(17)  807.4992
C     1.365134    0.537315    0.020385    0.006347   -0.029193   -0.335959
C     1.281419   -0.787805    0.101153    0.003902   -0.007485   -0.069480
N    -0.021323   -1.449335    0.132243    0.002747   -0.009332   -0.121482
C    -1.289317   -0.623766   -0.010120   -0.004930    0.012641    0.157693
N    -1.065089    0.708952   -0.073233    0.007929   -0.018922   -0.212136
C     0.170282    1.384692   -0.199451   -0.019366    0.058813    0.702937
O    -2.334822   -1.197978    0.028109    0.000238   -0.003336   -0.034894
O     0.192922    2.596940   -0.195987    0.005194   -0.013195   -0.187021
H     2.127018   -1.493885   -0.005881   -0.035264    0.135572    1.581108
H    -0.139727   -2.047529    0.972393    0.218126    0.309081    0.104449
H    -1.900694    1.285663   -0.210185   -0.006638    0.030119    0.335368
H     2.336789    1.028548   -0.100217   -0.016667    0.048800    0.564185
H    -0.045850   -2.130550   -0.649977   -0.226750   -0.282960    0.149133
13
* Frequency(17)  807.4992
C     1.365855    0.533997   -0.017795    0.006347   -0.029193   -0.335959
C     1.281863   -0.788655    0.093257    0.003902   -0.007485   -0.069480
N    -0.021011   -1.450395    0.118437    0.002747   -0.009332   -0.121482
C    -1.289878   -0.622329    0.007801   -0.004930    0.012641    0.157693
N    -1.064188    0.706802   -0.097341    0.007929   -0.018922   -0.212136
C     0.168081    1.391376   -0.119566   -0.019366    0.058813    0.702937
O    -2.334795   -1.198357    0.024143    0.000238   -0.003336   -0.034894
O     0.193513    2.595440   -0.217241    0.005194   -0.013195   -0.187021
H     2.123010   -1.478478    0.173803   -0.035264    0.135572    1.581108
H    -0.114939   -2.012404    0.984263    0.218126    0.309081    0.104449
H    -1.901448    1.289086   -0.172072   -0.006638    0.030119    0.335368
H     2.334895    1.034094   -0.036100   -0.016667    0.048800    0.564185
H    -0.071619   -2.162707   -0.633029   -0.226750   -0.282960    0.149133
