13
* (null), Energy   -1000.0000000
C     1.621188    0.403598    0.009016   -0.018247    0.004188    0.074240
C     1.539018   -0.919147    0.120543   -0.002391    0.017271    0.234795
N     0.234586   -1.584887    0.143046    0.017042   -0.026360   -0.389054
C    -1.040982   -0.751715    0.035244   -0.014786    0.032144    0.369619
N    -0.811196    0.577219   -0.071669    0.016342   -0.013942   -0.058558
C     0.423111    1.261638   -0.096194    0.002953   -0.002558   -0.034912
O    -2.084970   -1.326745    0.055920   -0.004063   -0.008858   -0.074823
O     0.451027    2.464431   -0.197533    0.000741    0.002464    0.014594
H     2.382077   -1.607559    0.201521    0.023244   -0.010449   -0.266338
H     0.139969   -2.151905    1.007849    0.020619    1.122699    0.360737
H    -1.647994    1.161186   -0.147295    0.021694   -0.012499   -0.097910
H     2.590366    0.904195   -0.008805    0.002243   -0.075584   -0.982905
H     0.188398   -2.293879   -0.614969   -0.092047   -0.970870    0.491692
13
* Frequency(20)  955.1366
C     1.619115    0.404074    0.017453   -0.018247    0.004188    0.074240
C     1.538746   -0.917184    0.147226   -0.002391    0.017271    0.234795
N     0.236523   -1.587883    0.098832    0.017042   -0.026360   -0.389054
C    -1.042662   -0.748062    0.077250   -0.014786    0.032144    0.369619
N    -0.809339    0.575635   -0.078324    0.016342   -0.013942   -0.058558
C     0.423447    1.261347   -0.100161    0.002953   -0.002558   -0.034912
O    -2.085432   -1.327752    0.047417   -0.004063   -0.008858   -0.074823
O     0.451112    2.464711   -0.195874    0.000741    0.002464    0.014594
H     2.384719   -1.608746    0.171253    0.023244   -0.010449   -0.266338
H     0.142312   -2.024316    1.048845    0.020619    1.122699    0.360737
H    -1.645529    1.159766   -0.158422    0.021694   -0.012499   -0.097910
H     2.590621    0.895605   -0.120507    0.002243   -0.075584   -0.982905
H     0.177937   -2.404213   -0.559091   -0.092047   -0.970870    0.491692
13
* Frequency(20)  955.1366
C     1.617266    0.404498    0.024976   -0.018247    0.004188    0.074240
C     1.538504   -0.915434    0.171018   -0.002391    0.017271    0.234795
N     0.238250   -1.590554    0.059409    0.017042   -0.026360   -0.389054
C    -1.044161   -0.744804    0.114703   -0.014786    0.032144    0.369619
N    -0.807683    0.574222   -0.084257    0.016342   -0.013942   -0.058558
C     0.423746    1.261088   -0.103699    0.002953   -0.002558   -0.034912
O    -2.085843   -1.328649    0.039835   -0.004063   -0.008858   -0.074823
O     0.451187    2.464960   -0.194395    0.000741    0.002464    0.014594
H     2.387074   -1.609805    0.144265    0.023244   -0.010449   -0.266338
H     0.144401   -1.910553    1.085398    0.020619    1.122699    0.360737
H    -1.643330    1.158499   -0.168344    0.021694   -0.012499   -0.097910
H     2.590848    0.887946   -0.220104    0.002243   -0.075584   -0.982905
H     0.168610   -2.502591   -0.509268   -0.092047   -0.970870    0.491692
13
* Frequency(20)  955.1366
C     1.615842    0.404825    0.030769   -0.018247    0.004188    0.074240
C     1.538317   -0.914087    0.189340   -0.002391    0.017271    0.234795
N     0.239579   -1.592611    0.029050    0.017042   -0.026360   -0.389054
C    -1.045314   -0.742296    0.143546   -0.014786    0.032144    0.369619
N    -0.806408    0.573134   -0.088827    0.016342   -0.013942   -0.058558
C     0.423976    1.260889   -0.106423    0.002953   -0.002558   -0.034912
O    -2.086160   -1.329340    0.033996   -0.004063   -0.008858   -0.074823
O     0.451244    2.465153   -0.193257    0.000741    0.002464    0.014594
H     2.388888   -1.610620    0.123481    0.023244   -0.010449   -0.266338
H     0.146010   -1.822945    1.113548    0.020619    1.122699    0.360737
H    -1.641638    1.157524   -0.175984    0.021694   -0.012499   -0.097910
H     2.591023    0.882048   -0.296804    0.002243   -0.075584   -0.982905
H     0.161427   -2.578352   -0.470899   -0.092047   -0.970870    0.491692
13
* Frequency(20)  955.1366
C     1.614997    0.405019    0.034205   -0.018247    0.004188    0.074240
C     1.538207   -0.913287    0.200206   -0.002391    0.017271    0.234795
N     0.240368   -1.593831    0.011044    0.017042   -0.026360   -0.389054
C    -1.045999   -0.740808    0.160652   -0.014786    0.032144    0.369619
N    -0.805652    0.572488   -0.091537    0.016342   -0.013942   -0.058558
C     0.424113    1.260770   -0.108039    0.002953   -0.002558   -0.034912
O    -2.086348   -1.329750    0.030534   -0.004063   -0.008858   -0.074823
O     0.451279    2.465267   -0.192581    0.000741    0.002464    0.014594
H     2.389964   -1.611104    0.111155    0.023244   -0.010449   -0.266338
H     0.146965   -1.770984    1.130243    0.020619    1.122699    0.360737
H    -1.640634    1.156945   -0.180515    0.021694   -0.012499   -0.097910
H     2.591127    0.878550   -0.342294    0.002243   -0.075584   -0.982905
H     0.157167   -2.623285   -0.448143   -0.092047   -0.970870    0.491692
13
* Frequency(20)  955.1366
C     1.614824    0.405059    0.034911   -0.018247    0.004188    0.074240
C     1.538184   -0.913123    0.202440   -0.002391    0.017271    0.234795
N     0.240530   -1.594081    0.007342    0.017042   -0.026360   -0.389054
C    -1.046140   -0.740503    0.164169   -0.014786    0.032144    0.369619
N    -0.805496    0.572356   -0.092094    0.016342   -0.013942   -0.058558
C     0.424141    1.260746   -0.108371    0.002953   -0.002558   -0.034912
O    -2.086387   -1.329835    0.029822   -0.004063   -0.008858   -0.074823
O     0.451286    2.465290   -0.192442    0.000741    0.002464    0.014594
H     2.390185   -1.611203    0.108621    0.023244   -0.010449   -0.266338
H     0.147161   -1.760302    1.133675    0.020619    1.122699    0.360737
H    -1.640427    1.156826   -0.181447    0.021694   -0.012499   -0.097910
H     2.591148    0.877831   -0.351646    0.002243   -0.075584   -0.982905
H     0.156291   -2.632523   -0.443464   -0.092047   -0.970870    0.491692
13
* Frequency(20)  955.1366
C     1.615340    0.404940    0.032812   -0.018247    0.004188    0.074240
C     1.538252   -0.913611    0.195799   -0.002391    0.017271    0.234795
N     0.240048   -1.593336    0.018346    0.017042   -0.026360   -0.389054
C    -1.045721   -0.741412    0.153715   -0.014786    0.032144    0.369619
N    -0.805959    0.572750   -0.090438    0.016342   -0.013942   -0.058558
C     0.424058    1.260818   -0.107384    0.002953   -0.002558   -0.034912
O    -2.086272   -1.329584    0.031938   -0.004063   -0.008858   -0.074823
O     0.451265    2.465220   -0.192855    0.000741    0.002464    0.014594
H     2.389527   -1.610908    0.116154    0.023244   -0.010449   -0.266338
H     0.146578   -1.792056    1.123472    0.020619    1.122699    0.360737
H    -1.641041    1.157180   -0.178678    0.021694   -0.012499   -0.097910
H     2.591085    0.879969   -0.323846    0.002243   -0.075584   -0.982905
H     0.158895   -2.605063   -0.457371   -0.092047   -0.970870    0.491692
13
* Frequency(20)  955.1366
C     1.616490    0.404677    0.028133   -0.018247    0.004188    0.074240
C     1.538402   -0.914700    0.181003   -0.002391    0.017271    0.234795
N     0.238974   -1.591675    0.042863    0.017042   -0.026360   -0.389054
C    -1.044789   -0.743437    0.130423   -0.014786    0.032144    0.369619
N    -0.806988    0.573629   -0.086748    0.016342   -0.013942   -0.058558
C     0.423872    1.260979   -0.105184    0.002953   -0.002558   -0.034912
O    -2.086016   -1.329026    0.036653   -0.004063   -0.008858   -0.074823
O     0.451218    2.465065   -0.193775    0.000741    0.002464    0.014594
H     2.388062   -1.610249    0.132938    0.023244   -0.010449   -0.266338
H     0.145278   -1.862806    1.100740    0.020619    1.122699    0.360737
H    -1.642408    1.157968   -0.172508    0.021694   -0.012499   -0.097910
H     2.590943    0.884732   -0.261906    0.002243   -0.075584   -0.982905
H     0.164695   -2.543881   -0.488356   -0.092047   -0.970870    0.491692
13
* Frequency(20)  955.1366
C     1.618149    0.404296    0.021383   -0.018247    0.004188    0.074240
C     1.538620   -0.916270    0.159655   -0.002391    0.017271    0.234795
N     0.237425   -1.589278    0.078237    0.017042   -0.026360   -0.389054
C    -1.043445   -0.746360    0.096816   -0.014786    0.032144    0.369619
N    -0.808474    0.574896   -0.081423    0.016342   -0.013942   -0.058558
C     0.423603    1.261212   -0.102009    0.002953   -0.002558   -0.034912
O    -2.085647   -1.328220    0.043456   -0.004063   -0.008858   -0.074823
O     0.451151    2.464841   -0.195102    0.000741    0.002464    0.014594
H     2.385949   -1.609299    0.157154    0.023244   -0.010449   -0.266338
H     0.143404   -1.964884    1.067941    0.020619    1.122699    0.360737
H    -1.644380    1.159104   -0.163605    0.021694   -0.012499   -0.097910
H     2.590739    0.891604   -0.172538    0.002243   -0.075584   -0.982905
H     0.173064   -2.455608   -0.533062   -0.092047   -0.970870    0.491692
13
* Frequency(20)  955.1366
C     1.620137    0.403839    0.013293   -0.018247    0.004188    0.074240
C     1.538880   -0.918152    0.134069   -0.002391    0.017271    0.234795
N     0.235568   -1.586405    0.120633    0.017042   -0.026360   -0.389054
C    -1.041834   -0.749863    0.056538   -0.014786    0.032144    0.369619
N    -0.810255    0.576416   -0.075042    0.016342   -0.013942   -0.058558
C     0.423281    1.261491   -0.098205    0.002953   -0.002558   -0.034912
O    -2.085204   -1.327255    0.051610   -0.004063   -0.008858   -0.074823
O     0.451070    2.464573   -0.196692    0.000741    0.002464    0.014594
H     2.383416   -1.608161    0.186177    0.023244   -0.010449   -0.266338
H     0.141157   -2.087228    1.028630    0.020619    1.122699    0.360737
H    -1.646744    1.160466   -0.152936    0.021694   -0.012499   -0.097910
H     2.590495    0.899841   -0.065428    0.002243   -0.075584   -0.982905
H     0.183095   -2.349809   -0.586643   -0.092047   -0.970870    0.491692
13
* Frequency(20)  955.1366
C     1.622239    0.403357    0.004739   -0.018247    0.004188    0.074240
C     1.539156   -0.920142    0.107017   -0.002391    0.017271    0.234795
N     0.233604   -1.583368    0.165459    0.017042   -0.026360   -0.389054
C    -1.040130   -0.753566    0.013951   -0.014786    0.032144    0.369619
N    -0.812138    0.578022   -0.068295    0.016342   -0.013942   -0.058558
C     0.422941    1.261786   -0.094182    0.002953   -0.002558   -0.034912
O    -2.084736   -1.326235    0.060231   -0.004063   -0.008858   -0.074823
O     0.450985    2.464289   -0.198374    0.000741    0.002464    0.014594
H     2.380738   -1.606957    0.216864    0.023244   -0.010449   -0.266338
H     0.138781   -2.216581    0.987067    0.020619    1.122699    0.360737
H    -1.649244    1.161906   -0.141655    0.021694   -0.012499   -0.097910
H     2.590237    0.908549    0.047819    0.002243   -0.075584   -0.982905
H     0.193700   -2.237949   -0.643294   -0.092047   -0.970870    0.491692
13
* Frequency(20)  955.1366
C     1.624228    0.402901   -0.003351   -0.018247    0.004188    0.074240
C     1.539416   -0.922024    0.081430   -0.002391    0.017271    0.234795
N     0.231747   -1.580496    0.207855    0.017042   -0.026360   -0.389054
C    -1.038519   -0.757069   -0.026327   -0.014786    0.032144    0.369619
N    -0.813919    0.579542   -0.061914    0.016342   -0.013942   -0.058558
C     0.422619    1.262064   -0.090378    0.002953   -0.002558   -0.034912
O    -2.084293   -1.325269    0.068385   -0.004063   -0.008858   -0.074823
O     0.450904    2.464020   -0.199964    0.000741    0.002464    0.014594
H     2.378205   -1.605818    0.245888    0.023244   -0.010449   -0.266338
H     0.136534   -2.338926    0.947757    0.020619    1.122699    0.360737
H    -1.651608    1.163268   -0.130986    0.021694   -0.012499   -0.097910
H     2.589992    0.916786    0.154929    0.002243   -0.075584   -0.982905
H     0.203731   -2.132150   -0.696876   -0.092047   -0.970870    0.491692
13
* Frequency(20)  955.1366
C     1.625887    0.402520   -0.010101   -0.018247    0.004188    0.074240
C     1.539634   -0.923595    0.060082   -0.002391    0.017271    0.234795
N     0.230197   -1.578099    0.243229    0.017042   -0.026360   -0.389054
C    -1.037174   -0.759992   -0.059934   -0.014786    0.032144    0.369619
N    -0.815404    0.580809   -0.056590    0.016342   -0.013942   -0.058558
C     0.422351    1.262297   -0.087203    0.002953   -0.002558   -0.034912
O    -2.083923   -1.324464    0.075188   -0.004063   -0.008858   -0.074823
O     0.450837    2.463796   -0.201291    0.000741    0.002464    0.014594
H     2.376091   -1.604868    0.270104    0.023244   -0.010449   -0.266338
H     0.134659   -2.441003    0.914958    0.020619    1.122699    0.360737
H    -1.653580    1.164405   -0.122083    0.021694   -0.012499   -0.097910
H     2.589788    0.923658    0.244297    0.002243   -0.075584   -0.982905
H     0.212100   -2.043876   -0.741581   -0.092047   -0.970870    0.491692
13
* Frequency(20)  955.1366
C     1.627037    0.402256   -0.014780   -0.018247    0.004188    0.074240
C     1.539784   -0.924683    0.045286   -0.002391    0.017271    0.234795
N     0.229123   -1.576438    0.267746    0.017042   -0.026360   -0.389054
C    -1.036243   -0.762018   -0.083226   -0.014786    0.032144    0.369619
N    -0.816434    0.581688   -0.052900    0.016342   -0.013942   -0.058558
C     0.422164    1.262458   -0.085003    0.002953   -0.002558   -0.034912
O    -2.083667   -1.323906    0.079903   -0.004063   -0.008858   -0.074823
O     0.450790    2.463641   -0.202211    0.000741    0.002464    0.014594
H     2.374627   -1.604210    0.286888    0.023244   -0.010449   -0.266338
H     0.133360   -2.511753    0.892225    0.020619    1.122699    0.360737
H    -1.654947    1.165192   -0.115913    0.021694   -0.012499   -0.097910
H     2.589647    0.928421    0.306237    0.002243   -0.075584   -0.982905
H     0.217901   -1.982695   -0.772566   -0.092047   -0.970870    0.491692
13
* Frequency(20)  955.1366
C     1.627553    0.402137   -0.016879   -0.018247    0.004188    0.074240
C     1.539852   -0.925172    0.038645   -0.002391    0.017271    0.234795
N     0.228641   -1.575692    0.278750    0.017042   -0.026360   -0.389054
C    -1.035824   -0.762927   -0.093680   -0.014786    0.032144    0.369619
N    -0.816896    0.582082   -0.051244    0.016342   -0.013942   -0.058558
C     0.422081    1.262531   -0.084016    0.002953   -0.002558   -0.034912
O    -2.083552   -1.323655    0.082019   -0.004063   -0.008858   -0.074823
O     0.450769    2.463571   -0.202623    0.000741    0.002464    0.014594
H     2.373969   -1.603914    0.294421    0.023244   -0.010449   -0.266338
H     0.132777   -2.543507    0.882022    0.020619    1.122699    0.360737
H    -1.655561    1.165546   -0.113144    0.021694   -0.012499   -0.097910
H     2.589583    0.930559    0.334037    0.002243   -0.075584   -0.982905
H     0.220504   -1.955235   -0.786473   -0.092047   -0.970870    0.491692
13
* Frequency(20)  955.1366
C     1.627379    0.402177   -0.016173   -0.018247    0.004188    0.074240
C     1.539829   -0.925007    0.040879   -0.002391    0.017271    0.234795
N     0.228804   -1.575943    0.275048    0.017042   -0.026360   -0.389054
C    -1.035965   -0.762621   -0.090164   -0.014786    0.032144    0.369619
N    -0.816741    0.581950   -0.051801    0.016342   -0.013942   -0.058558
C     0.422109    1.262506   -0.084348    0.002953   -0.002558   -0.034912
O    -2.083591   -1.323739    0.081307   -0.004063   -0.008858   -0.074823
O     0.450776    2.463595   -0.202485    0.000741    0.002464    0.014594
H     2.374190   -1.604013    0.291887    0.023244   -0.010449   -0.266338
H     0.132973   -2.532825    0.885454    0.020619    1.122699    0.360737
H    -1.655355    1.165427   -0.114076    0.021694   -0.012499   -0.097910
H     2.589605    0.929840    0.324685    0.002243   -0.075584   -0.982905
H     0.219628   -1.964472   -0.781795   -0.092047   -0.970870    0.491692
13
* Frequency(20)  955.1366
C     1.626535    0.402371   -0.012737   -0.018247    0.004188    0.074240
C     1.539718   -0.924208    0.051746   -0.002391    0.017271    0.234795
N     0.229592   -1.577163    0.257042    0.017042   -0.026360   -0.389054
C    -1.036649   -0.761133   -0.073057   -0.014786    0.032144    0.369619
N    -0.815985    0.581304   -0.054511    0.016342   -0.013942   -0.058558
C     0.422246    1.262388   -0.085964    0.002953   -0.002558   -0.034912
O    -2.083779   -1.324149    0.077844   -0.004063   -0.008858   -0.074823
O     0.450810    2.463709   -0.201809    0.000741    0.002464    0.014594
H     2.375266   -1.604497    0.279560    0.023244   -0.010449   -0.266338
H     0.133927   -2.480865    0.902150    0.020619    1.122699    0.360737
H    -1.654351    1.164848   -0.118607    0.021694   -0.012499   -0.097910
H     2.589709    0.926342    0.279195    0.002243   -0.075584   -0.982905
H     0.215368   -2.009406   -0.759039   -0.092047   -0.970870    0.491692
13
* Frequency(20)  955.1366
C     1.625111    0.402698   -0.006944   -0.018247    0.004188    0.074240
C     1.539532   -0.922860    0.070068   -0.002391    0.017271    0.234795
N     0.230922   -1.579220    0.226683    0.017042   -0.026360   -0.389054
C    -1.037803   -0.758625   -0.044214   -0.014786    0.032144    0.369619
N    -0.814709    0.580216   -0.059080    0.016342   -0.013942   -0.058558
C     0.422476    1.262188   -0.088688    0.002953   -0.002558   -0.034912
O    -2.084096   -1.324840    0.072005   -0.004063   -0.008858   -0.074823
O     0.450868    2.463901   -0.200670    0.000741    0.002464    0.014594
H     2.377080   -1.605312    0.258777    0.023244   -0.010449   -0.266338
H     0.135536   -2.393256    0.930300    0.020619    1.122699    0.360737
H    -1.652658    1.163873   -0.126247    0.021694   -0.012499   -0.097910
H     2.589884    0.920443    0.202495    0.002243   -0.075584   -0.982905
H     0.208185   -2.085166   -0.720670   -0.092047   -0.970870    0.491692
13
* Frequency(20)  955.1366
C     1.623262    0.403122    0.000579   -0.018247    0.004188    0.074240
C     1.539290   -0.921110    0.093859   -0.002391    0.017271    0.234795
N     0.232649   -1.581891    0.187260    0.017042   -0.026360   -0.389054
C    -1.039302   -0.755368   -0.006761   -0.014786    0.032144    0.369619
N    -0.813053    0.578804   -0.065014    0.016342   -0.013942   -0.058558
C     0.422775    1.261929   -0.092226    0.002953   -0.002558   -0.034912
O    -2.084508   -1.325738    0.064424   -0.004063   -0.008858   -0.074823
O     0.450943    2.464151   -0.199191    0.000741    0.002464    0.014594
H     2.379435   -1.606371    0.231789    0.023244   -0.010449   -0.266338
H     0.137626   -2.279493    0.966853    0.020619    1.122699    0.360737
H    -1.650459    1.162607   -0.136169    0.021694   -0.012499   -0.097910
H     2.590111    0.912785    0.102897    0.002243   -0.075584   -0.982905
H     0.198858   -2.183544   -0.670847   -0.092047   -0.970870    0.491692
13
* Frequency(20)  955.1366
C     1.621188    0.403598    0.009016   -0.018247    0.004188    0.074240
C     1.539018   -0.919147    0.120543   -0.002391    0.017271    0.234795
N     0.234586   -1.584887    0.143046    0.017042   -0.026360   -0.389054
C    -1.040982   -0.751715    0.035244   -0.014786    0.032144    0.369619
N    -0.811196    0.577219   -0.071669    0.016342   -0.013942   -0.058558
C     0.423111    1.261638   -0.096194    0.002953   -0.002558   -0.034912
O    -2.084970   -1.326745    0.055920   -0.004063   -0.008858   -0.074823
O     0.451027    2.464431   -0.197533    0.000741    0.002464    0.014594
H     2.382077   -1.607559    0.201521    0.023244   -0.010449   -0.266338
H     0.139969   -2.151905    1.007849    0.020619    1.122699    0.360737
H    -1.647994    1.161186   -0.147295    0.021694   -0.012499   -0.097910
H     2.590366    0.904195   -0.008805    0.002243   -0.075584   -0.982905
H     0.188398   -2.293879   -0.614969   -0.092047   -0.970870    0.491692
