13
* (null), Energy   -1000.0000000
C     1.621188    0.403598    0.009016   -0.013079    0.003597    0.046144
C     1.539018   -0.919147    0.120543   -0.009247   -0.003654    0.001061
N     0.234586   -1.584887    0.143046    0.009672   -0.036387   -0.110439
C    -1.040982   -0.751715    0.035244    0.007393   -0.043620   -0.415193
N    -0.811196    0.577219   -0.071669    0.004940    0.006900    0.107785
C     0.423111    1.261638   -0.096194    0.007753    0.009693   -0.148097
O    -2.084970   -1.326745    0.055920   -0.009281    0.008503    0.160821
O     0.451027    2.464431   -0.197533    0.006115    0.027263    0.026817
H     2.382077   -1.607559    0.201521   -0.008493    0.060780    0.542219
H     0.139969   -2.151905    1.007849   -0.188187    0.858836    0.461022
H    -1.647994    1.161186   -0.147295   -0.022936    0.092863    1.077751
H     2.590366    0.904195   -0.008805   -0.015868    0.026698    0.530178
H     0.188398   -2.293879   -0.614969    0.168240   -0.792161    0.597022
13
* Frequency(13)  562.4259
C     1.619702    0.404007    0.014260   -0.013079    0.003597    0.046144
C     1.537967   -0.919563    0.120663   -0.009247   -0.003654    0.001061
N     0.235685   -1.589022    0.130495    0.009672   -0.036387   -0.110439
C    -1.040142   -0.756672   -0.011940    0.007393   -0.043620   -0.415193
N    -0.810635    0.578003   -0.059420    0.004940    0.006900    0.107785
C     0.423992    1.262740   -0.113024    0.007753    0.009693   -0.148097
O    -2.086024   -1.325778    0.074197   -0.009281    0.008503    0.160821
O     0.451722    2.467529   -0.194485    0.006115    0.027263    0.026817
H     2.381112   -1.600651    0.263141   -0.008493    0.060780    0.542219
H     0.118582   -2.054302    1.060242   -0.188187    0.858836    0.461022
H    -1.650601    1.171739   -0.024815   -0.022936    0.092863    1.077751
H     2.588563    0.907229    0.051447   -0.015868    0.026698    0.530178
H     0.207517   -2.383904   -0.547120    0.168240   -0.792161    0.597022
13
* Frequency(13)  562.4259
C     1.618376    0.404372    0.018936   -0.013079    0.003597    0.046144
C     1.537030   -0.919933    0.120771   -0.009247   -0.003654    0.001061
N     0.236665   -1.592709    0.119305    0.009672   -0.036387   -0.110439
C    -1.039393   -0.761092   -0.054011    0.007393   -0.043620   -0.415193
N    -0.810134    0.578702   -0.048498    0.004940    0.006900    0.107785
C     0.424778    1.263722   -0.128031    0.007753    0.009693   -0.148097
O    -2.086965   -1.324917    0.090493   -0.009281    0.008503    0.160821
O     0.452342    2.470291   -0.191768    0.006115    0.027263    0.026817
H     2.380251   -1.594493    0.318084   -0.008493    0.060780    0.542219
H     0.099513   -1.967277    1.106957   -0.188187    0.858836    0.461022
H    -1.652925    1.181149    0.084393   -0.022936    0.092863    1.077751
H     2.586955    0.909934    0.105170   -0.015868    0.026698    0.530178
H     0.224565   -2.464173   -0.486624    0.168240   -0.792161    0.597022
13
* Frequency(13)  562.4259
C     1.617356    0.404652    0.022537   -0.013079    0.003597    0.046144
C     1.536309   -0.920218    0.120854   -0.009247   -0.003654    0.001061
N     0.237420   -1.595549    0.110687    0.009672   -0.036387   -0.110439
C    -1.038816   -0.764496   -0.086411    0.007393   -0.043620   -0.415193
N    -0.809749    0.579241   -0.040087    0.004940    0.006900    0.107785
C     0.425383    1.264478   -0.139587    0.007753    0.009693   -0.148097
O    -2.087689   -1.324253    0.103042   -0.009281    0.008503    0.160821
O     0.452819    2.472419   -0.189675    0.006115    0.027263    0.026817
H     2.379588   -1.589750    0.360395   -0.008493    0.060780    0.542219
H     0.084828   -1.900258    1.142932   -0.188187    0.858836    0.461022
H    -1.654714    1.188396    0.168494   -0.022936    0.092863    1.077751
H     2.585716    0.912017    0.146542   -0.015868    0.026698    0.530178
H     0.237693   -2.525988   -0.440036    0.168240   -0.792161    0.597022
13
* Frequency(13)  562.4259
C     1.616751    0.404819    0.024672   -0.013079    0.003597    0.046144
C     1.535881   -0.920387    0.120903   -0.009247   -0.003654    0.001061
N     0.237868   -1.597233    0.105575    0.009672   -0.036387   -0.110439
C    -1.038474   -0.766514   -0.105626    0.007393   -0.043620   -0.415193
N    -0.809520    0.579560   -0.035099    0.004940    0.006900    0.107785
C     0.425742    1.264927   -0.146441    0.007753    0.009693   -0.148097
O    -2.088119   -1.323860    0.110485   -0.009281    0.008503    0.160821
O     0.453102    2.473681   -0.188434    0.006115    0.027263    0.026817
H     2.379195   -1.586937    0.385490   -0.008493    0.060780    0.542219
H     0.076119   -1.860510    1.164269   -0.188187    0.858836    0.461022
H    -1.655776    1.192694    0.218375   -0.022936    0.092863    1.077751
H     2.584982    0.913253    0.171079   -0.015868    0.026698    0.530178
H     0.245480   -2.562651   -0.412405    0.168240   -0.792161    0.597022
13
* Frequency(13)  562.4259
C     1.616626    0.404853    0.025111   -0.013079    0.003597    0.046144
C     1.535793   -0.920422    0.120913   -0.009247   -0.003654    0.001061
N     0.237960   -1.597579    0.104525    0.009672   -0.036387   -0.110439
C    -1.038403   -0.766929   -0.109577    0.007393   -0.043620   -0.415193
N    -0.809473    0.579626   -0.034073    0.004940    0.006900    0.107785
C     0.425816    1.265019   -0.147850    0.007753    0.009693   -0.148097
O    -2.088207   -1.323779    0.112015   -0.009281    0.008503    0.160821
O     0.453160    2.473940   -0.188179    0.006115    0.027263    0.026817
H     2.379114   -1.586359    0.390649   -0.008493    0.060780    0.542219
H     0.074328   -1.852339    1.168655   -0.188187    0.858836    0.461022
H    -1.655994    1.193577    0.228629   -0.022936    0.092863    1.077751
H     2.584831    0.913507    0.176124   -0.015868    0.026698    0.530178
H     0.247080   -2.570188   -0.406725    0.168240   -0.792161    0.597022
13
* Frequency(13)  562.4259
C     1.616996    0.404751    0.023806   -0.013079    0.003597    0.046144
C     1.536054   -0.920318    0.120883   -0.009247   -0.003654    0.001061
N     0.237686   -1.596550    0.107648    0.009672   -0.036387   -0.110439
C    -1.038612   -0.765696   -0.097834    0.007393   -0.043620   -0.415193
N    -0.809613    0.579430   -0.037122    0.004940    0.006900    0.107785
C     0.425596    1.264745   -0.143662    0.007753    0.009693   -0.148097
O    -2.087945   -1.324019    0.107467   -0.009281    0.008503    0.160821
O     0.452987    2.473169   -0.188938    0.006115    0.027263    0.026817
H     2.379355   -1.588078    0.375313   -0.008493    0.060780    0.542219
H     0.079651   -1.876630    1.155616   -0.188187    0.858836    0.461022
H    -1.655345    1.190951    0.198146   -0.022936    0.092863    1.077751
H     2.585280    0.912752    0.161128   -0.015868    0.026698    0.530178
H     0.242322   -2.547783   -0.423611    0.168240   -0.792161    0.597022
13
* Frequency(13)  562.4259
C     1.617820    0.404525    0.020898   -0.013079    0.003597    0.046144
C     1.536637   -0.920088    0.120816   -0.009247   -0.003654    0.001061
N     0.237076   -1.594257    0.114608    0.009672   -0.036387   -0.110439
C    -1.039078   -0.762947   -0.071669    0.007393   -0.043620   -0.415193
N    -0.809924    0.578996   -0.043914    0.004940    0.006900    0.107785
C     0.425108    1.264134   -0.134329    0.007753    0.009693   -0.148097
O    -2.087360   -1.324555    0.097332   -0.009281    0.008503    0.160821
O     0.452602    2.471451   -0.190627    0.006115    0.027263    0.026817
H     2.379890   -1.591908    0.341144   -0.008493    0.060780    0.542219
H     0.091510   -1.930751    1.126564   -0.188187    0.858836    0.461022
H    -1.653900    1.185099    0.130229   -0.022936    0.092863    1.077751
H     2.586280    0.911070    0.127718   -0.015868    0.026698    0.530178
H     0.231720   -2.497863   -0.461234    0.168240   -0.792161    0.597022
13
* Frequency(13)  562.4259
C     1.619009    0.404197    0.016703   -0.013079    0.003597    0.046144
C     1.537478   -0.919756    0.120719   -0.009247   -0.003654    0.001061
N     0.236197   -1.590948    0.124649    0.009672   -0.036387   -0.110439
C    -1.039750   -0.758981   -0.033919    0.007393   -0.043620   -0.415193
N    -0.810373    0.578368   -0.053714    0.004940    0.006900    0.107785
C     0.424403    1.263253   -0.120864    0.007753    0.009693   -0.148097
O    -2.086516   -1.325328    0.082710   -0.009281    0.008503    0.160821
O     0.452046    2.468972   -0.193066    0.006115    0.027263    0.026817
H     2.380662   -1.597434    0.291844   -0.008493    0.060780    0.542219
H     0.108620   -2.008838    1.084647   -0.188187    0.858836    0.461022
H    -1.651815    1.176655    0.032238   -0.022936    0.092863    1.077751
H     2.587723    0.908642    0.079513   -0.015868    0.026698    0.530178
H     0.216423   -2.425838   -0.515516    0.168240   -0.792161    0.597022
13
* Frequency(13)  562.4259
C     1.620435    0.403805    0.011674   -0.013079    0.003597    0.046144
C     1.538485   -0.919358    0.120604   -0.009247   -0.003654    0.001061
N     0.235143   -1.586983    0.136684    0.009672   -0.036387   -0.110439
C    -1.040556   -0.754227    0.011326    0.007393   -0.043620   -0.415193
N    -0.810912    0.577616   -0.065460    0.004940    0.006900    0.107785
C     0.423558    1.262197   -0.104725    0.007753    0.009693   -0.148097
O    -2.085504   -1.326255    0.065185   -0.009281    0.008503    0.160821
O     0.451380    2.466001   -0.195988    0.006115    0.027263    0.026817
H     2.381588   -1.604057    0.232757   -0.008493    0.060780    0.542219
H     0.129128   -2.102429    1.034407   -0.188187    0.858836    0.461022
H    -1.649315    1.166536   -0.085208   -0.022936    0.092863    1.077751
H     2.589452    0.905733    0.021738   -0.015868    0.026698    0.530178
H     0.198090   -2.339514   -0.580575    0.168240   -0.792161    0.597022
13
* Frequency(13)  562.4259
C     1.621942    0.403391    0.006358   -0.013079    0.003597    0.046144
C     1.539551   -0.918937    0.120482   -0.009247   -0.003654    0.001061
N     0.234029   -1.582791    0.149408    0.009672   -0.036387   -0.110439
C    -1.041408   -0.749202    0.059163    0.007393   -0.043620   -0.415193
N    -0.811481    0.576822   -0.077878    0.004940    0.006900    0.107785
C     0.422664    1.261080   -0.087662    0.007753    0.009693   -0.148097
O    -2.084435   -1.327235    0.046656   -0.009281    0.008503    0.160821
O     0.450675    2.462860   -0.199078    0.006115    0.027263    0.026817
H     2.382566   -1.611060    0.170284   -0.008493    0.060780    0.542219
H     0.150810   -2.201380    0.981290   -0.188187    0.858836    0.461022
H    -1.646673    1.155836   -0.209383   -0.022936    0.092863    1.077751
H     2.591280    0.902657   -0.039347   -0.015868    0.026698    0.530178
H     0.178706   -2.248244   -0.649362    0.168240   -0.792161    0.597022
13
* Frequency(13)  562.4259
C     1.623367    0.402999    0.001329   -0.013079    0.003597    0.046144
C     1.540558   -0.918539    0.120366   -0.009247   -0.003654    0.001061
N     0.232975   -1.578825    0.161443    0.009672   -0.036387   -0.110439
C    -1.042214   -0.744448    0.104408    0.007393   -0.043620   -0.415193
N    -0.812019    0.576070   -0.089624    0.004940    0.006900    0.107785
C     0.421820    1.260024   -0.071523    0.007753    0.009693   -0.148097
O    -2.083424   -1.328161    0.029131   -0.009281    0.008503    0.160821
O     0.450009    2.459889   -0.202000    0.006115    0.027263    0.026817
H     2.383492   -1.617684    0.111197   -0.008493    0.060780    0.542219
H     0.171317   -2.294971    0.931051   -0.188187    0.858836    0.461022
H    -1.644173    1.145717   -0.326829   -0.022936    0.092863    1.077751
H     2.593009    0.899747   -0.097123   -0.015868    0.026698    0.530178
H     0.160372   -2.161919   -0.714422    0.168240   -0.792161    0.597022
13
* Frequency(13)  562.4259
C     1.624556    0.402672   -0.002866   -0.013079    0.003597    0.046144
C     1.541399   -0.918206    0.120269   -0.009247   -0.003654    0.001061
N     0.232095   -1.575517    0.171484    0.009672   -0.036387   -0.110439
C    -1.042886   -0.740482    0.142158    0.007393   -0.043620   -0.415193
N    -0.812468    0.575442   -0.099424    0.004940    0.006900    0.107785
C     0.421115    1.259142   -0.058058    0.007753    0.009693   -0.148097
O    -2.082580   -1.328934    0.014508   -0.009281    0.008503    0.160821
O     0.449453    2.457410   -0.204438    0.006115    0.027263    0.026817
H     2.384264   -1.623210    0.061898   -0.008493    0.060780    0.542219
H     0.188428   -2.373058    0.889134   -0.188187    0.858836    0.461022
H    -1.642088    1.137274   -0.424820   -0.022936    0.092863    1.077751
H     2.594452    0.897320   -0.145327   -0.015868    0.026698    0.530178
H     0.145075   -2.089895   -0.768704    0.168240   -0.792161    0.597022
13
* Frequency(13)  562.4259
C     1.625380    0.402445   -0.005774   -0.013079    0.003597    0.046144
C     1.541982   -0.917976    0.120203   -0.009247   -0.003654    0.001061
N     0.231486   -1.573224    0.178444    0.009672   -0.036387   -0.110439
C    -1.043352   -0.737734    0.168322    0.007393   -0.043620   -0.415193
N    -0.812780    0.575008   -0.106216    0.004940    0.006900    0.107785
C     0.420626    1.258531   -0.048726    0.007753    0.009693   -0.148097
O    -2.081995   -1.329470    0.004374   -0.009281    0.008503    0.160821
O     0.449068    2.455692   -0.206128    0.006115    0.027263    0.026817
H     2.384799   -1.627040    0.027728   -0.008493    0.060780    0.542219
H     0.200287   -2.427179    0.860082   -0.188187    0.858836    0.461022
H    -1.640643    1.131422   -0.492737   -0.022936    0.092863    1.077751
H     2.595452    0.895638   -0.178738   -0.015868    0.026698    0.530178
H     0.134473   -2.039975   -0.806327    0.168240   -0.792161    0.597022
13
* Frequency(13)  562.4259
C     1.625750    0.402343   -0.007079   -0.013079    0.003597    0.046144
C     1.542243   -0.917873    0.120173   -0.009247   -0.003654    0.001061
N     0.231212   -1.572195    0.181568    0.009672   -0.036387   -0.110439
C    -1.043561   -0.736500    0.180066    0.007393   -0.043620   -0.415193
N    -0.812919    0.574812   -0.109265    0.004940    0.006900    0.107785
C     0.420407    1.258257   -0.044537    0.007753    0.009693   -0.148097
O    -2.081733   -1.329711   -0.000175   -0.009281    0.008503    0.160821
O     0.448895    2.454921   -0.206887    0.006115    0.027263    0.026817
H     2.385039   -1.628759    0.012392   -0.008493    0.060780    0.542219
H     0.205610   -2.451471    0.847042   -0.188187    0.858836    0.461022
H    -1.639994    1.128795   -0.523220   -0.022936    0.092863    1.077751
H     2.595900    0.894882   -0.193733   -0.015868    0.026698    0.530178
H     0.129715   -2.017569   -0.823213    0.168240   -0.792161    0.597022
13
* Frequency(13)  562.4259
C     1.625626    0.402378   -0.006640   -0.013079    0.003597    0.046144
C     1.542155   -0.917907    0.120183   -0.009247   -0.003654    0.001061
N     0.231304   -1.572541    0.180517    0.009672   -0.036387   -0.110439
C    -1.043490   -0.736915    0.176115    0.007393   -0.043620   -0.415193
N    -0.812872    0.574878   -0.108239    0.004940    0.006900    0.107785
C     0.420480    1.258349   -0.045946    0.007753    0.009693   -0.148097
O    -2.081821   -1.329630    0.001355   -0.009281    0.008503    0.160821
O     0.448953    2.455181   -0.206632    0.006115    0.027263    0.026817
H     2.384959   -1.628181    0.017551   -0.008493    0.060780    0.542219
H     0.203819   -2.443299    0.851428   -0.188187    0.858836    0.461022
H    -1.640212    1.129679   -0.512966   -0.022936    0.092863    1.077751
H     2.595749    0.895136   -0.188689   -0.015868    0.026698    0.530178
H     0.131316   -2.025106   -0.817533    0.168240   -0.792161    0.597022
13
* Frequency(13)  562.4259
C     1.625020    0.402544   -0.004505   -0.013079    0.003597    0.046144
C     1.541727   -0.918077    0.120232   -0.009247   -0.003654    0.001061
N     0.231752   -1.574225    0.175406    0.009672   -0.036387   -0.110439
C    -1.043148   -0.738934    0.156900    0.007393   -0.043620   -0.415193
N    -0.812644    0.575197   -0.103251    0.004940    0.006900    0.107785
C     0.420839    1.258798   -0.052800    0.007753    0.009693   -0.148097
O    -2.082250   -1.329236    0.008799   -0.009281    0.008503    0.160821
O     0.449236    2.456442   -0.205390    0.006115    0.027263    0.026817
H     2.384566   -1.625368    0.042646   -0.008493    0.060780    0.542219
H     0.195109   -2.403551    0.872765   -0.188187    0.858836    0.461022
H    -1.641274    1.133977   -0.463085   -0.022936    0.092863    1.077751
H     2.595015    0.896372   -0.164151   -0.015868    0.026698    0.530178
H     0.139102   -2.061769   -0.789901    0.168240   -0.792161    0.597022
13
* Frequency(13)  562.4259
C     1.624000    0.402825   -0.000904   -0.013079    0.003597    0.046144
C     1.541006   -0.918362    0.120315   -0.009247   -0.003654    0.001061
N     0.232507   -1.577064    0.166788    0.009672   -0.036387   -0.110439
C    -1.042571   -0.742337    0.124500    0.007393   -0.043620   -0.415193
N    -0.812258    0.575736   -0.094840    0.004940    0.006900    0.107785
C     0.421444    1.259554   -0.064357    0.007753    0.009693   -0.148097
O    -2.082975   -1.328573    0.021348   -0.009281    0.008503    0.160821
O     0.449713    2.458570   -0.203298    0.006115    0.027263    0.026817
H     2.383903   -1.620625    0.084958   -0.008493    0.060780    0.542219
H     0.180424   -2.336532    0.908741   -0.188187    0.858836    0.461022
H    -1.643064    1.141223   -0.378984   -0.022936    0.092863    1.077751
H     2.593777    0.898455   -0.122779   -0.015868    0.026698    0.530178
H     0.152230   -2.123584   -0.743313    0.168240   -0.792161    0.597022
13
* Frequency(13)  562.4259
C     1.622675    0.403189    0.003772   -0.013079    0.003597    0.046144
C     1.540069   -0.918732    0.120422   -0.009247   -0.003654    0.001061
N     0.233487   -1.580752    0.155597    0.009672   -0.036387   -0.110439
C    -1.041822   -0.746757    0.082429    0.007393   -0.043620   -0.415193
N    -0.811758    0.576435   -0.083918    0.004940    0.006900    0.107785
C     0.422230    1.260537   -0.079363    0.007753    0.009693   -0.148097
O    -2.083915   -1.327711    0.037644   -0.009281    0.008503    0.160821
O     0.450333    2.461332   -0.200580    0.006115    0.027263    0.026817
H     2.383042   -1.614466    0.139900   -0.008493    0.060780    0.542219
H     0.161355   -2.249507    0.955456   -0.188187    0.858836    0.461022
H    -1.645388    1.150633   -0.269776   -0.022936    0.092863    1.077751
H     2.592169    0.901161   -0.069057   -0.015868    0.026698    0.530178
H     0.169278   -2.203854   -0.682817    0.168240   -0.792161    0.597022
13
* Frequency(13)  562.4259
C     1.621188    0.403598    0.009016   -0.013079    0.003597    0.046144
C     1.539018   -0.919147    0.120543   -0.009247   -0.003654    0.001061
N     0.234586   -1.584887    0.143046    0.009672   -0.036387   -0.110439
C    -1.040982   -0.751715    0.035244    0.007393   -0.043620   -0.415193
N    -0.811196    0.577219   -0.071669    0.004940    0.006900    0.107785
C     0.423111    1.261638   -0.096194    0.007753    0.009693   -0.148097
O    -2.084970   -1.326745    0.055920   -0.009281    0.008503    0.160821
O     0.451027    2.464431   -0.197533    0.006115    0.027263    0.026817
H     2.382077   -1.607559    0.201521   -0.008493    0.060780    0.542219
H     0.139969   -2.151905    1.007849   -0.188187    0.858836    0.461022
H    -1.647994    1.161186   -0.147295   -0.022936    0.092863    1.077751
H     2.590366    0.904195   -0.008805   -0.015868    0.026698    0.530178
H     0.188398   -2.293879   -0.614969    0.168240   -0.792161    0.597022
