13
* (null), Energy   -1000.0000000
C     1.365855    0.533997   -0.017795   -0.165665   -0.139498    0.007380
C     1.281863   -0.788655    0.093257    0.081075    0.016505    0.000010
N    -0.021011   -1.450395    0.118437   -0.282776    0.122632   -0.017848
C    -1.289878   -0.622329    0.007801    0.318550   -0.458228    0.048739
N    -1.064188    0.706802   -0.097341   -0.283334    0.298771   -0.033657
C     0.168081    1.391376   -0.119566    0.576669   -0.009586    0.016716
O    -2.334795   -1.198357    0.024143   -0.103377    0.017154   -0.004646
O     0.193513    2.595440   -0.217241   -0.102029   -0.025307   -0.000657
H     2.123010   -1.478478    0.173803    0.610129    0.668295   -0.045280
H    -0.114939   -2.012404    0.984263    0.735699   -0.247506   -0.120081
H    -1.901448    1.289086   -0.172072   -0.097660    0.594227   -0.051823
H     2.334895    1.034094   -0.036100   -0.533811    0.514684   -0.054244
H    -0.071619   -2.162707   -0.633029    0.753227   -0.216191    0.203304
13
* Frequency(26) 1330.3984
C     1.347028    0.518144   -0.016957   -0.165665   -0.139498    0.007380
C     1.291077   -0.786780    0.093258    0.081075    0.016505    0.000010
N    -0.053147   -1.436459    0.116409   -0.282776    0.122632   -0.017848
C    -1.253676   -0.674405    0.013340    0.318550   -0.458228    0.048739
N    -1.096387    0.740755   -0.101166   -0.283334    0.298771   -0.033657
C     0.233617    1.390287   -0.117667    0.576669   -0.009586    0.016716
O    -2.346543   -1.196408    0.023615   -0.103377    0.017154   -0.004646
O     0.181918    2.592564   -0.217316   -0.102029   -0.025307   -0.000657
H     2.192348   -1.402529    0.168658    0.610129    0.668295   -0.045280
H    -0.031330   -2.040532    0.970617    0.735699   -0.247506   -0.120081
H    -1.912546    1.356617   -0.177962   -0.097660    0.594227   -0.051823
H     2.274230    1.092585   -0.042264   -0.533811    0.514684   -0.054244
H     0.013981   -2.187276   -0.609924    0.753227   -0.216191    0.203304
13
* Frequency(26) 1330.3984
C     1.330241    0.504009   -0.016209   -0.165665   -0.139498    0.007380
C     1.299292   -0.785107    0.093259    0.081075    0.016505    0.000010
N    -0.081800   -1.424032    0.114600   -0.282776    0.122632   -0.017848
C    -1.221397   -0.720837    0.018279    0.318550   -0.458228    0.048739
N    -1.125097    0.771030   -0.104576   -0.283334    0.298771   -0.033657
C     0.292050    1.389315   -0.115973    0.576669   -0.009586    0.016716
O    -2.357018   -1.194669    0.023144   -0.103377    0.017154   -0.004646
O     0.171579    2.590000   -0.217382   -0.102029   -0.025307   -0.000657
H     2.254172   -1.334811    0.164069    0.610129    0.668295   -0.045280
H     0.043218   -2.065611    0.958449    0.735699   -0.247506   -0.120081
H    -1.922442    1.416830   -0.183213   -0.097660    0.594227   -0.051823
H     2.220139    1.144738   -0.047761   -0.533811    0.514684   -0.054244
H     0.090306   -2.209182   -0.589324    0.753227   -0.216191    0.203304
13
* Frequency(26) 1330.3984
C     1.317314    0.493123   -0.015633   -0.165665   -0.139498    0.007380
C     1.305619   -0.783819    0.093260    0.081075    0.016505    0.000010
N    -0.103866   -1.414463    0.113208   -0.282776    0.122632   -0.017848
C    -1.196540   -0.756594    0.022082    0.318550   -0.458228    0.048739
N    -1.147207    0.794344   -0.107203   -0.283334    0.298771   -0.033657
C     0.337050    1.388567   -0.114668    0.576669   -0.009586    0.016716
O    -2.365085   -1.193331    0.022782   -0.103377    0.017154   -0.004646
O     0.163617    2.588025   -0.217434   -0.102029   -0.025307   -0.000657
H     2.301783   -1.282662    0.160536    0.610129    0.668295   -0.045280
H     0.100627   -2.084925    0.949079    0.735699   -0.247506   -0.120081
H    -1.930063    1.463199   -0.187257   -0.097660    0.594227   -0.051823
H     2.178484    1.184901   -0.051994   -0.533811    0.514684   -0.054244
H     0.149083   -2.226052   -0.573459    0.753227   -0.216191    0.203304
13
* Frequency(26) 1330.3984
C     1.309646    0.486667   -0.015291   -0.165665   -0.139498    0.007380
C     1.309371   -0.783055    0.093260    0.081075    0.016505    0.000010
N    -0.116954   -1.408787    0.112382   -0.282776    0.122632   -0.017848
C    -1.181797   -0.777802    0.024338    0.318550   -0.458228    0.048739
N    -1.160320    0.808172   -0.108760   -0.283334    0.298771   -0.033657
C     0.363739    1.388124   -0.113895    0.576669   -0.009586    0.016716
O    -2.369870   -1.192537    0.022567   -0.103377    0.017154   -0.004646
O     0.158895    2.586854   -0.217464   -0.102029   -0.025307   -0.000657
H     2.330021   -1.251732    0.158440    0.610129    0.668295   -0.045280
H     0.134677   -2.096380    0.943521    0.735699   -0.247506   -0.120081
H    -1.934583    1.490701   -0.189656   -0.097660    0.594227   -0.051823
H     2.153778    1.208721   -0.054504   -0.533811    0.514684   -0.054244
H     0.183944   -2.236058   -0.564050    0.753227   -0.216191    0.203304
13
* Frequency(26) 1330.3984
C     1.308070    0.485340   -0.015221   -0.165665   -0.139498    0.007380
C     1.310142   -0.782898    0.093260    0.081075    0.016505    0.000010
N    -0.119644   -1.407620    0.112212   -0.282776    0.122632   -0.017848
C    -1.178766   -0.782161    0.024801    0.318550   -0.458228    0.048739
N    -1.163016    0.811014   -0.109081   -0.283334    0.298771   -0.033657
C     0.369226    1.388032   -0.113736    0.576669   -0.009586    0.016716
O    -2.370853   -1.192374    0.022523   -0.103377    0.017154   -0.004646
O     0.157925    2.586613   -0.217470   -0.102029   -0.025307   -0.000657
H     2.335826   -1.245373    0.158010    0.610129    0.668295   -0.045280
H     0.141677   -2.098735    0.942379    0.735699   -0.247506   -0.120081
H    -1.935512    1.496355   -0.190149   -0.097660    0.594227   -0.051823
H     2.148699    1.213618   -0.055020   -0.533811    0.514684   -0.054244
H     0.191110   -2.238115   -0.562115    0.753227   -0.216191    0.203304
13
* Frequency(26) 1330.3984
C     1.312756    0.489285   -0.015430   -0.165665   -0.139498    0.007380
C     1.307849   -0.783365    0.093260    0.081075    0.016505    0.000010
N    -0.111646   -1.411089    0.112717   -0.282776    0.122632   -0.017848
C    -1.187776   -0.769201    0.023423    0.318550   -0.458228    0.048739
N    -1.155002    0.802564   -0.108129   -0.283334    0.298771   -0.033657
C     0.352916    1.388304   -0.114208    0.576669   -0.009586    0.016716
O    -2.367929   -1.192859    0.022654   -0.103377    0.017154   -0.004646
O     0.160810    2.587329   -0.217452   -0.102029   -0.025307   -0.000657
H     2.318569   -1.264275    0.159290    0.610129    0.668295   -0.045280
H     0.120868   -2.091735    0.945775    0.735699   -0.247506   -0.120081
H    -1.932750    1.479548   -0.188683   -0.097660    0.594227   -0.051823
H     2.163797    1.199061   -0.053486   -0.533811    0.514684   -0.054244
H     0.169806   -2.232000   -0.567866    0.753227   -0.216191    0.203304
13
* Frequency(26) 1330.3984
C     1.323196    0.498076   -0.015895   -0.165665   -0.139498    0.007380
C     1.302740   -0.784405    0.093259    0.081075    0.016505    0.000010
N    -0.093827   -1.418817    0.113841   -0.282776    0.122632   -0.017848
C    -1.207850   -0.740325    0.020351    0.318550   -0.458228    0.048739
N    -1.137147    0.783736   -0.106008   -0.283334    0.298771   -0.033657
C     0.316575    1.388908   -0.115262    0.576669   -0.009586    0.016716
O    -2.361415   -1.193940    0.022947   -0.103377    0.017154   -0.004646
O     0.167240    2.588924   -0.217410   -0.102029   -0.025307   -0.000657
H     2.280120   -1.306389    0.162144    0.610129    0.668295   -0.045280
H     0.074507   -2.076138    0.953342    0.735699   -0.247506   -0.120081
H    -1.926596    1.442102   -0.185417   -0.097660    0.594227   -0.051823
H     2.197437    1.166627   -0.050068   -0.533811    0.514684   -0.054244
H     0.122340   -2.218376   -0.580677    0.753227   -0.216191    0.203304
13
* Frequency(26) 1330.3984
C     1.338258    0.510760   -0.016566   -0.165665   -0.139498    0.007380
C     1.295369   -0.785906    0.093258    0.081075    0.016505    0.000010
N    -0.068116   -1.429967    0.115464   -0.282776    0.122632   -0.017848
C    -1.236813   -0.698662    0.015920    0.318550   -0.458228    0.048739
N    -1.111386    0.756571   -0.102948   -0.283334    0.298771   -0.033657
C     0.264144    1.389779   -0.116782    0.576669   -0.009586    0.016716
O    -2.352016   -1.195500    0.023369   -0.103377    0.017154   -0.004646
O     0.176517    2.591225   -0.217351   -0.102029   -0.025307   -0.000657
H     2.224646   -1.367152    0.166261    0.610129    0.668295   -0.045280
H     0.007615   -2.053634    0.964260    0.735699   -0.247506   -0.120081
H    -1.917716    1.388073   -0.180705   -0.097660    0.594227   -0.051823
H     2.245972    1.119831   -0.045136   -0.533811    0.514684   -0.054244
H     0.053855   -2.198720   -0.599162    0.753227   -0.216191    0.203304
13
* Frequency(26) 1330.3984
C     1.356311    0.525961   -0.017370   -0.165665   -0.139498    0.007380
C     1.286534   -0.787705    0.093257    0.081075    0.016505    0.000010
N    -0.037301   -1.443330    0.117409   -0.282776    0.122632   -0.017848
C    -1.271526   -0.648727    0.010609    0.318550   -0.458228    0.048739
N    -1.080510    0.724013   -0.099280   -0.283334    0.298771   -0.033657
C     0.201302    1.390824   -0.118603    0.576669   -0.009586    0.016716
O    -2.340750   -1.197369    0.023876   -0.103377    0.017154   -0.004646
O     0.187635    2.593982   -0.217279   -0.102029   -0.025307   -0.000657
H     2.158158   -1.439979    0.171195    0.610129    0.668295   -0.045280
H    -0.072556   -2.026662    0.977346    0.735699   -0.247506   -0.120081
H    -1.907074    1.323318   -0.175058   -0.097660    0.594227   -0.051823
H     2.304143    1.063744   -0.039225   -0.533811    0.514684   -0.054244
H    -0.028227   -2.175161   -0.621317    0.753227   -0.216191    0.203304
13
* Frequency(26) 1330.3984
C     1.375399    0.542034   -0.018221   -0.165665   -0.139498    0.007380
C     1.277192   -0.789606    0.093256    0.081075    0.016505    0.000010
N    -0.004720   -1.457460    0.119465   -0.282776    0.122632   -0.017848
C    -1.308229   -0.595932    0.004993    0.318550   -0.458228    0.048739
N    -1.047866    0.689590   -0.095402   -0.283334    0.298771   -0.033657
C     0.134860    1.391928   -0.120529    0.576669   -0.009586    0.016716
O    -2.328840   -1.199345    0.024411   -0.103377    0.017154   -0.004646
O     0.199390    2.596898   -0.217203   -0.102029   -0.025307   -0.000657
H     2.087862   -1.516977    0.176412    0.610129    0.668295   -0.045280
H    -0.157321   -1.998146    0.991181    0.735699   -0.247506   -0.120081
H    -1.895822    1.254854   -0.169087   -0.097660    0.594227   -0.051823
H     2.365647    1.004444   -0.032975   -0.533811    0.514684   -0.054244
H    -0.115011   -2.150252   -0.644741    0.753227   -0.216191    0.203304
13
* Frequency(26) 1330.3984
C     1.393452    0.557235   -0.019025   -0.165665   -0.139498    0.007380
C     1.268357   -0.791405    0.093255    0.081075    0.016505    0.000010
N     0.026095   -1.470823    0.121410   -0.282776    0.122632   -0.017848
C    -1.342942   -0.545997   -0.000318    0.318550   -0.458228    0.048739
N    -1.016990    0.657032   -0.091735   -0.283334    0.298771   -0.033657
C     0.072019    1.392973   -0.122351    0.576669   -0.009586    0.016716
O    -2.317574   -1.201215    0.024917   -0.103377    0.017154   -0.004646
O     0.210509    2.599656   -0.217132   -0.102029   -0.025307   -0.000657
H     2.021374   -1.589803    0.181346    0.610129    0.668295   -0.045280
H    -0.237493   -1.971174    1.004267    0.735699   -0.247506   -0.120081
H    -1.885180    1.190099   -0.163440   -0.097660    0.594227   -0.051823
H     2.423818    0.948357   -0.027064   -0.533811    0.514684   -0.054244
H    -0.197093   -2.126693   -0.666895    0.753227   -0.216191    0.203304
13
* Frequency(26) 1330.3984
C     1.408514    0.569919   -0.019696   -0.165665   -0.139498    0.007380
C     1.260986   -0.792906    0.093254    0.081075    0.016505    0.000010
N     0.051805   -1.481973    0.123033   -0.282776    0.122632   -0.017848
C    -1.371905   -0.504334   -0.004749    0.318550   -0.458228    0.048739
N    -0.991228    0.629867   -0.088674   -0.283334    0.298771   -0.033657
C     0.019587    1.393844   -0.123871    0.576669   -0.009586    0.016716
O    -2.308175   -1.202774    0.025340   -0.103377    0.017154   -0.004646
O     0.219786    2.601957   -0.217072   -0.102029   -0.025307   -0.000657
H     1.965900   -1.650566    0.185463    0.610129    0.668295   -0.045280
H    -0.304384   -1.948670    1.015185    0.735699   -0.247506   -0.120081
H    -1.876300    1.136070   -0.158728   -0.097660    0.594227   -0.051823
H     2.472353    0.901561   -0.022132   -0.533811    0.514684   -0.054244
H    -0.265578   -2.107037   -0.685380    0.753227   -0.216191    0.203304
13
* Frequency(26) 1330.3984
C     1.418954    0.578709   -0.020161   -0.165665   -0.139498    0.007380
C     1.255877   -0.793946    0.093254    0.081075    0.016505    0.000010
N     0.069625   -1.489701    0.124158   -0.282776    0.122632   -0.017848
C    -1.391979   -0.475458   -0.007821    0.318550   -0.458228    0.048739
N    -0.973374    0.611039   -0.086554   -0.283334    0.298771   -0.033657
C    -0.016753    1.394448   -0.124924    0.576669   -0.009586    0.016716
O    -2.301661   -1.203855    0.025632   -0.103377    0.017154   -0.004646
O     0.226215    2.603552   -0.217031   -0.102029   -0.025307   -0.000657
H     1.927451   -1.692680    0.188317    0.610129    0.668295   -0.045280
H    -0.350745   -1.933073    1.022752    0.735699   -0.247506   -0.120081
H    -1.870146    1.098624   -0.155462   -0.097660    0.594227   -0.051823
H     2.505992    0.869127   -0.018714   -0.533811    0.514684   -0.054244
H    -0.313044   -2.093413   -0.698192    0.753227   -0.216191    0.203304
13
* Frequency(26) 1330.3984
C     1.423640    0.582655   -0.020370   -0.165665   -0.139498    0.007380
C     1.253583   -0.794412    0.093253    0.081075    0.016505    0.000010
N     0.077623   -1.493170    0.124663   -0.282776    0.122632   -0.017848
C    -1.400989   -0.462497   -0.009199    0.318550   -0.458228    0.048739
N    -0.965360    0.602589   -0.085602   -0.283334    0.298771   -0.033657
C    -0.033064    1.394719   -0.125397    0.576669   -0.009586    0.016716
O    -2.298737   -1.204341    0.025764   -0.103377    0.017154   -0.004646
O     0.229101    2.604268   -0.217012   -0.102029   -0.025307   -0.000657
H     1.910194   -1.711582    0.189597    0.610129    0.668295   -0.045280
H    -0.371554   -1.926073    1.026148    0.735699   -0.247506   -0.120081
H    -1.867384    1.081817   -0.153996   -0.097660    0.594227   -0.051823
H     2.521090    0.854570   -0.017180   -0.533811    0.514684   -0.054244
H    -0.334348   -2.087298   -0.703942    0.753227   -0.216191    0.203304
13
* Frequency(26) 1330.3984
C     1.422064    0.581328   -0.020299   -0.165665   -0.139498    0.007380
C     1.254355   -0.794255    0.093253    0.081075    0.016505    0.000010
N     0.074933   -1.492003    0.124493   -0.282776    0.122632   -0.017848
C    -1.397958   -0.466857   -0.008735    0.318550   -0.458228    0.048739
N    -0.968056    0.605432   -0.085922   -0.283334    0.298771   -0.033657
C    -0.027577    1.394628   -0.125238    0.576669   -0.009586    0.016716
O    -2.299720   -1.204177    0.025720   -0.103377    0.017154   -0.004646
O     0.228130    2.604027   -0.217018   -0.102029   -0.025307   -0.000657
H     1.915999   -1.705224    0.189166    0.610129    0.668295   -0.045280
H    -0.364554   -1.928428    1.025006    0.735699   -0.247506   -0.120081
H    -1.868313    1.087471   -0.154489   -0.097660    0.594227   -0.051823
H     2.516011    0.859467   -0.017696   -0.533811    0.514684   -0.054244
H    -0.327182   -2.089355   -0.702008    0.753227   -0.216191    0.203304
13
* Frequency(26) 1330.3984
C     1.414396    0.574871   -0.019958   -0.165665   -0.139498    0.007380
C     1.258107   -0.793492    0.093254    0.081075    0.016505    0.000010
N     0.061845   -1.486327    0.123667   -0.282776    0.122632   -0.017848
C    -1.383215   -0.488065   -0.006480    0.318550   -0.458228    0.048739
N    -0.981169    0.619259   -0.087480   -0.283334    0.298771   -0.033657
C    -0.000888    1.394185   -0.124464    0.576669   -0.009586    0.016716
O    -2.304505   -1.203383    0.025505   -0.103377    0.017154   -0.004646
O     0.223408    2.602855   -0.217049   -0.102029   -0.025307   -0.000657
H     1.944237   -1.674294    0.187071    0.610129    0.668295   -0.045280
H    -0.330505   -1.939883    1.019448    0.735699   -0.247506   -0.120081
H    -1.872833    1.114973   -0.156888   -0.097660    0.594227   -0.051823
H     2.491306    0.883287   -0.020206   -0.533811    0.514684   -0.054244
H    -0.292321   -2.099361   -0.692598    0.753227   -0.216191    0.203304
13
* Frequency(26) 1330.3984
C     1.401469    0.563986   -0.019382   -0.165665   -0.139498    0.007380
C     1.264434   -0.792204    0.093255    0.081075    0.016505    0.000010
N     0.039779   -1.476758    0.122274   -0.282776    0.122632   -0.017848
C    -1.358358   -0.523822   -0.002676    0.318550   -0.458228    0.048739
N    -1.003278    0.642574   -0.090106   -0.283334    0.298771   -0.033657
C     0.044112    1.393437   -0.123160    0.576669   -0.009586    0.016716
O    -2.312572   -1.202045    0.025142   -0.103377    0.017154   -0.004646
O     0.215446    2.600881   -0.217100   -0.102029   -0.025307   -0.000657
H     1.991848   -1.622144    0.183537    0.610129    0.668295   -0.045280
H    -0.273095   -1.959197    1.010078    0.735699   -0.247506   -0.120081
H    -1.880454    1.161342   -0.160932   -0.097660    0.594227   -0.051823
H     2.449650    0.923450   -0.024439   -0.533811    0.514684   -0.054244
H    -0.233544   -2.116231   -0.676734    0.753227   -0.216191    0.203304
13
* Frequency(26) 1330.3984
C     1.384682    0.549851   -0.018634   -0.165665   -0.139498    0.007380
C     1.272649   -0.790531    0.093256    0.081075    0.016505    0.000010
N     0.011125   -1.464332    0.120466   -0.282776    0.122632   -0.017848
C    -1.326079   -0.570254    0.002262    0.318550   -0.458228    0.048739
N    -1.031988    0.672848   -0.093516   -0.283334    0.298771   -0.033657
C     0.102546    1.392465   -0.121466    0.576669   -0.009586    0.016716
O    -2.323047   -1.200307    0.024671   -0.103377    0.017154   -0.004646
O     0.205108    2.598316   -0.217167   -0.102029   -0.025307   -0.000657
H     2.053672   -1.554426    0.178949    0.610129    0.668295   -0.045280
H    -0.198547   -1.984276    0.997910    0.735699   -0.247506   -0.120081
H    -1.890349    1.221555   -0.166183   -0.097660    0.594227   -0.051823
H     2.395560    0.975603   -0.029935   -0.533811    0.514684   -0.054244
H    -0.157219   -2.138138   -0.656133    0.753227   -0.216191    0.203304
13
* Frequency(26) 1330.3984
C     1.365855    0.533997   -0.017795   -0.165665   -0.139498    0.007380
C     1.281863   -0.788655    0.093257    0.081075    0.016505    0.000010
N    -0.021011   -1.450395    0.118437   -0.282776    0.122632   -0.017848
C    -1.289878   -0.622329    0.007801    0.318550   -0.458228    0.048739
N    -1.064188    0.706802   -0.097341   -0.283334    0.298771   -0.033657
C     0.168081    1.391376   -0.119566    0.576669   -0.009586    0.016716
O    -2.334795   -1.198357    0.024143   -0.103377    0.017154   -0.004646
O     0.193513    2.595440   -0.217241   -0.102029   -0.025307   -0.000657
H     2.123010   -1.478478    0.173803    0.610129    0.668295   -0.045280
H    -0.114939   -2.012404    0.984263    0.735699   -0.247506   -0.120081
H    -1.901448    1.289086   -0.172072   -0.097660    0.594227   -0.051823
H     2.334895    1.034094   -0.036100   -0.533811    0.514684   -0.054244
H    -0.071619   -2.162707   -0.633029    0.753227   -0.216191    0.203304
