13
* (null), Energy   -1000.0000000
C     1.365855    0.533997   -0.017795    0.001473   -0.000016    0.000039
C     1.281863   -0.788655    0.093257   -0.000051   -0.000204    0.000013
N    -0.021011   -1.450395    0.118437    0.000657   -0.002737    0.000276
C    -1.289878   -0.622329    0.007801    0.001322   -0.000904    0.000088
N    -1.064188    0.706802   -0.097341   -0.120054    0.085400   -0.010841
C     0.168081    1.391376   -0.119566    0.001218   -0.000964    0.000124
O    -2.334795   -1.198357    0.024143   -0.001238   -0.000740    0.000032
O     0.193513    2.595440   -0.217241   -0.000114    0.000658   -0.000062
H     2.123010   -1.478478    0.173803   -0.000685    0.001028   -0.000114
H    -0.114939   -2.012404    0.984263    0.002257    0.008050   -0.014017
H    -1.901448    1.289086   -0.172072    1.629727   -1.140324    0.145865
H     2.334895    1.034094   -0.036100    0.000416   -0.001638    0.000128
H    -0.071619   -2.162707   -0.633029    0.001657    0.010392    0.012280
13
* Frequency(38) 3536.2326
C     1.366022    0.533996   -0.017791    0.001473   -0.000016    0.000039
C     1.281857   -0.788679    0.093258   -0.000051   -0.000204    0.000013
N    -0.020936   -1.450706    0.118469    0.000657   -0.002737    0.000276
C    -1.289727   -0.622432    0.007811    0.001322   -0.000904    0.000088
N    -1.077831    0.716507   -0.098573   -0.120054    0.085400   -0.010841
C     0.168220    1.391266   -0.119552    0.001218   -0.000964    0.000124
O    -2.334936   -1.198441    0.024147   -0.001238   -0.000740    0.000032
O     0.193500    2.595515   -0.217248   -0.000114    0.000658   -0.000062
H     2.122932   -1.478361    0.173791   -0.000685    0.001028   -0.000114
H    -0.114682   -2.011489    0.982670    0.002257    0.008050   -0.014017
H    -1.716238    1.159494   -0.155496    1.629727   -1.140324    0.145865
H     2.334942    1.033908   -0.036085    0.000416   -0.001638    0.000128
H    -0.071431   -2.161526   -0.631633    0.001657    0.010392    0.012280
13
* Frequency(38) 3536.2326
C     1.366172    0.533994   -0.017787    0.001473   -0.000016    0.000039
C     1.281852   -0.788699    0.093259   -0.000051   -0.000204    0.000013
N    -0.020869   -1.450983    0.118497    0.000657   -0.002737    0.000276
C    -1.289593   -0.622524    0.007820    0.001322   -0.000904    0.000088
N    -1.089996    0.725161   -0.099672   -0.120054    0.085400   -0.010841
C     0.168343    1.391169   -0.119540    0.001218   -0.000964    0.000124
O    -2.335061   -1.198516    0.024150   -0.001238   -0.000740    0.000032
O     0.193488    2.595582   -0.217255   -0.000114    0.000658   -0.000062
H     2.122863   -1.478257    0.173779   -0.000685    0.001028   -0.000114
H    -0.114453   -2.010673    0.981250    0.002257    0.008050   -0.014017
H    -1.551098    1.043945   -0.140715    1.629727   -1.140324    0.145865
H     2.334984    1.033742   -0.036073    0.000416   -0.001638    0.000128
H    -0.071263   -2.160473   -0.630389    0.001657    0.010392    0.012280
13
* Frequency(38) 3536.2326
C     1.366287    0.533993   -0.017784    0.001473   -0.000016    0.000039
C     1.281848   -0.788715    0.093260   -0.000051   -0.000204    0.000013
N    -0.020818   -1.451197    0.118518    0.000657   -0.002737    0.000276
C    -1.289490   -0.622594    0.007827    0.001322   -0.000904    0.000088
N    -1.099365    0.731825   -0.100518   -0.120054    0.085400   -0.010841
C     0.168438    1.391093   -0.119530    0.001218   -0.000964    0.000124
O    -2.335158   -1.198574    0.024153   -0.001238   -0.000740    0.000032
O     0.193479    2.595633   -0.217259   -0.000114    0.000658   -0.000062
H     2.122809   -1.478176    0.173770   -0.000685    0.001028   -0.000114
H    -0.114277   -2.010045    0.980156    0.002257    0.008050   -0.014017
H    -1.423924    0.954962   -0.129333    1.629727   -1.140324    0.145865
H     2.335017    1.033614   -0.036063    0.000416   -0.001638    0.000128
H    -0.071134   -2.159662   -0.629430    0.001657    0.010392    0.012280
13
* Frequency(38) 3536.2326
C     1.366355    0.533992   -0.017782    0.001473   -0.000016    0.000039
C     1.281846   -0.788725    0.093261   -0.000051   -0.000204    0.000013
N    -0.020788   -1.451324    0.118531    0.000657   -0.002737    0.000276
C    -1.289429   -0.622636    0.007831    0.001322   -0.000904    0.000088
N    -1.104921    0.735777   -0.101019   -0.120054    0.085400   -0.010841
C     0.168495    1.391049   -0.119524    0.001218   -0.000964    0.000124
O    -2.335215   -1.198608    0.024154   -0.001238   -0.000740    0.000032
O     0.193474    2.595664   -0.217262   -0.000114    0.000658   -0.000062
H     2.122778   -1.478129    0.173765   -0.000685    0.001028   -0.000114
H    -0.114173   -2.009673    0.979508    0.002257    0.008050   -0.014017
H    -1.348498    0.902185   -0.122582    1.629727   -1.140324    0.145865
H     2.335036    1.033538   -0.036057    0.000416   -0.001638    0.000128
H    -0.071057   -2.159181   -0.628862    0.001657    0.010392    0.012280
13
* Frequency(38) 3536.2326
C     1.366369    0.533992   -0.017782    0.001473   -0.000016    0.000039
C     1.281845   -0.788727    0.093261   -0.000051   -0.000204    0.000013
N    -0.020782   -1.451350    0.118534    0.000657   -0.002737    0.000276
C    -1.289416   -0.622645    0.007832    0.001322   -0.000904    0.000088
N    -1.106063    0.736590   -0.101123   -0.120054    0.085400   -0.010841
C     0.168506    1.391040   -0.119523    0.001218   -0.000964    0.000124
O    -2.335227   -1.198615    0.024154   -0.001238   -0.000740    0.000032
O     0.193473    2.595670   -0.217263   -0.000114    0.000658   -0.000062
H     2.122771   -1.478119    0.173764   -0.000685    0.001028   -0.000114
H    -0.114151   -2.009596    0.979374    0.002257    0.008050   -0.014017
H    -1.332992    0.891336   -0.121194    1.629727   -1.140324    0.145865
H     2.335040    1.033523   -0.036055    0.000416   -0.001638    0.000128
H    -0.071041   -2.159082   -0.628745    0.001657    0.010392    0.012280
13
* Frequency(38) 3536.2326
C     1.366327    0.533992   -0.017783    0.001473   -0.000016    0.000039
C     1.281847   -0.788721    0.093261   -0.000051   -0.000204    0.000013
N    -0.020800   -1.451272    0.118526    0.000657   -0.002737    0.000276
C    -1.289454   -0.622619    0.007829    0.001322   -0.000904    0.000088
N    -1.102668    0.734174   -0.100816   -0.120054    0.085400   -0.010841
C     0.168472    1.391067   -0.119527    0.001218   -0.000964    0.000124
O    -2.335192   -1.198594    0.024154   -0.001238   -0.000740    0.000032
O     0.193476    2.595651   -0.217261   -0.000114    0.000658   -0.000062
H     2.122790   -1.478148    0.173767   -0.000685    0.001028   -0.000114
H    -0.114215   -2.009824    0.979771    0.002257    0.008050   -0.014017
H    -1.379087    0.923589   -0.125320    1.629727   -1.140324    0.145865
H     2.335028    1.033569   -0.036059    0.000416   -0.001638    0.000128
H    -0.071088   -2.159376   -0.629093    0.001657    0.010392    0.012280
13
* Frequency(38) 3536.2326
C     1.366234    0.533993   -0.017785    0.001473   -0.000016    0.000039
C     1.281850   -0.788708    0.093260   -0.000051   -0.000204    0.000013
N    -0.020841   -1.451100    0.118508    0.000657   -0.002737    0.000276
C    -1.289537   -0.622562    0.007824    0.001322   -0.000904    0.000088
N    -1.095102    0.728793   -0.100133   -0.120054    0.085400   -0.010841
C     0.168395    1.391128   -0.119534    0.001218   -0.000964    0.000124
O    -2.335114   -1.198548    0.024152   -0.001238   -0.000740    0.000032
O     0.193483    2.595610   -0.217257   -0.000114    0.000658   -0.000062
H     2.122834   -1.478213    0.173774   -0.000685    0.001028   -0.000114
H    -0.114357   -2.010331    0.980654    0.002257    0.008050   -0.014017
H    -1.481788    0.995449   -0.134512    1.629727   -1.140324    0.145865
H     2.335002    1.033672   -0.036067    0.000416   -0.001638    0.000128
H    -0.071192   -2.160031   -0.629866    0.001657    0.010392    0.012280
13
* Frequency(38) 3536.2326
C     1.366100    0.533995   -0.017789    0.001473   -0.000016    0.000039
C     1.281854   -0.788689    0.093259   -0.000051   -0.000204    0.000013
N    -0.020901   -1.450851    0.118483    0.000657   -0.002737    0.000276
C    -1.289657   -0.622480    0.007816    0.001322   -0.000904    0.000088
N    -1.084187    0.721028   -0.099147   -0.120054    0.085400   -0.010841
C     0.168284    1.391215   -0.119546    0.001218   -0.000964    0.000124
O    -2.335001   -1.198480    0.024149   -0.001238   -0.000740    0.000032
O     0.193494    2.595550   -0.217252   -0.000114    0.000658   -0.000062
H     2.122896   -1.478306    0.173785   -0.000685    0.001028   -0.000114
H    -0.114563   -2.011063    0.981928    0.002257    0.008050   -0.014017
H    -1.629965    1.099129   -0.147774    1.629727   -1.140324    0.145865
H     2.334964    1.033821   -0.036079    0.000416   -0.001638    0.000128
H    -0.071343   -2.160975   -0.630983    0.001657    0.010392    0.012280
13
* Frequency(38) 3536.2326
C     1.365940    0.533996   -0.017793    0.001473   -0.000016    0.000039
C     1.281860   -0.788667    0.093257   -0.000051   -0.000204    0.000013
N    -0.020973   -1.450553    0.118453    0.000657   -0.002737    0.000276
C    -1.289801   -0.622382    0.007806    0.001322   -0.000904    0.000088
N    -1.071104    0.711721   -0.097966   -0.120054    0.085400   -0.010841
C     0.168151    1.391320   -0.119559    0.001218   -0.000964    0.000124
O    -2.334866   -1.198400    0.024145   -0.001238   -0.000740    0.000032
O     0.193506    2.595478   -0.217245   -0.000114    0.000658   -0.000062
H     2.122971   -1.478419    0.173797   -0.000685    0.001028   -0.000114
H    -0.114809   -2.011940    0.983456    0.002257    0.008050   -0.014017
H    -1.807562    1.223394   -0.163669    1.629727   -1.140324    0.145865
H     2.334919    1.034000   -0.036093    0.000416   -0.001638    0.000128
H    -0.071524   -2.162108   -0.632321    0.001657    0.010392    0.012280
13
* Frequency(38) 3536.2326
C     1.365770    0.533998   -0.017798    0.001473   -0.000016    0.000039
C     1.281866   -0.788644    0.093256   -0.000051   -0.000204    0.000013
N    -0.021048   -1.450237    0.118421    0.000657   -0.002737    0.000276
C    -1.289954   -0.622277    0.007796    0.001322   -0.000904    0.000088
N    -1.057272    0.701882   -0.096717   -0.120054    0.085400   -0.010841
C     0.168011    1.391431   -0.119573    0.001218   -0.000964    0.000124
O    -2.334724   -1.198314    0.024141   -0.001238   -0.000740    0.000032
O     0.193519    2.595402   -0.217238   -0.000114    0.000658   -0.000062
H     2.123049   -1.478537    0.173810   -0.000685    0.001028   -0.000114
H    -0.115069   -2.012868    0.985071    0.002257    0.008050   -0.014017
H    -1.995333    1.354778   -0.180475    1.629727   -1.140324    0.145865
H     2.334871    1.034188   -0.036107    0.000416   -0.001638    0.000128
H    -0.071714   -2.163305   -0.633736    0.001657    0.010392    0.012280
13
* Frequency(38) 3536.2326
C     1.365610    0.534000   -0.017802    0.001473   -0.000016    0.000039
C     1.281871   -0.788621    0.093255   -0.000051   -0.000204    0.000013
N    -0.021120   -1.449939    0.118391    0.000657   -0.002737    0.000276
C    -1.290098   -0.622179    0.007786    0.001322   -0.000904    0.000088
N    -1.044189    0.692576   -0.095535   -0.120054    0.085400   -0.010841
C     0.167878    1.391537   -0.119587    0.001218   -0.000964    0.000124
O    -2.334589   -1.198234    0.024138   -0.001238   -0.000740    0.000032
O     0.193532    2.595331   -0.217231   -0.000114    0.000658   -0.000062
H     2.123124   -1.478649    0.173822   -0.000685    0.001028   -0.000114
H    -0.115314   -2.013745    0.986598    0.002257    0.008050   -0.014017
H    -2.172930    1.479043   -0.196371    1.629727   -1.140324    0.145865
H     2.334825    1.034367   -0.036121    0.000416   -0.001638    0.000128
H    -0.071895   -2.164438   -0.635074    0.001657    0.010392    0.012280
13
* Frequency(38) 3536.2326
C     1.365476    0.534001   -0.017806    0.001473   -0.000016    0.000039
C     1.281876   -0.788603    0.093253   -0.000051   -0.000204    0.000013
N    -0.021180   -1.449690    0.118366    0.000657   -0.002737    0.000276
C    -1.290218   -0.622097    0.007778    0.001322   -0.000904    0.000088
N    -1.033273    0.684811   -0.094549   -0.120054    0.085400   -0.010841
C     0.167767    1.391624   -0.119598    0.001218   -0.000964    0.000124
O    -2.334476   -1.198166    0.024135   -0.001238   -0.000740    0.000032
O     0.193542    2.595271   -0.217225   -0.000114    0.000658   -0.000062
H     2.123186   -1.478743    0.173833   -0.000685    0.001028   -0.000114
H    -0.115520   -2.014477    0.987873    0.002257    0.008050   -0.014017
H    -2.321108    1.582723   -0.209633    1.629727   -1.140324    0.145865
H     2.334788    1.034516   -0.036133    0.000416   -0.001638    0.000128
H    -0.072046   -2.165382   -0.636191    0.001657    0.010392    0.012280
13
* Frequency(38) 3536.2326
C     1.365383    0.534002   -0.017808    0.001473   -0.000016    0.000039
C     1.281879   -0.788590    0.093253   -0.000051   -0.000204    0.000013
N    -0.021221   -1.449518    0.118349    0.000657   -0.002737    0.000276
C    -1.290301   -0.622040    0.007773    0.001322   -0.000904    0.000088
N    -1.025708    0.679429   -0.093866   -0.120054    0.085400   -0.010841
C     0.167691    1.391685   -0.119606    0.001218   -0.000964    0.000124
O    -2.334398   -1.198120    0.024133   -0.001238   -0.000740    0.000032
O     0.193549    2.595229   -0.217221   -0.000114    0.000658   -0.000062
H     2.123230   -1.478807    0.173840   -0.000685    0.001028   -0.000114
H    -0.115662   -2.014984    0.988756    0.002257    0.008050   -0.014017
H    -2.423809    1.654584   -0.218825    1.629727   -1.140324    0.145865
H     2.334761    1.034619   -0.036141    0.000416   -0.001638    0.000128
H    -0.072150   -2.166037   -0.636965    0.001657    0.010392    0.012280
13
* Frequency(38) 3536.2326
C     1.365341    0.534003   -0.017809    0.001473   -0.000016    0.000039
C     1.281881   -0.788584    0.093252   -0.000051   -0.000204    0.000013
N    -0.021240   -1.449441    0.118341    0.000657   -0.002737    0.000276
C    -1.290339   -0.622014    0.007770    0.001322   -0.000904    0.000088
N    -1.022312    0.677014   -0.093560   -0.120054    0.085400   -0.010841
C     0.167656    1.391712   -0.119610    0.001218   -0.000964    0.000124
O    -2.334363   -1.198099    0.024132   -0.001238   -0.000740    0.000032
O     0.193553    2.595211   -0.217219   -0.000114    0.000658   -0.000062
H     2.123249   -1.478836    0.173843   -0.000685    0.001028   -0.000114
H    -0.115726   -2.015212    0.989152    0.002257    0.008050   -0.014017
H    -2.469904    1.686836   -0.222951    1.629727   -1.140324    0.145865
H     2.334750    1.034665   -0.036144    0.000416   -0.001638    0.000128
H    -0.072197   -2.166331   -0.637312    0.001657    0.010392    0.012280
13
* Frequency(38) 3536.2326
C     1.365355    0.534003   -0.017809    0.001473   -0.000016    0.000039
C     1.281880   -0.788586    0.093252   -0.000051   -0.000204    0.000013
N    -0.021234   -1.449467    0.118344    0.000657   -0.002737    0.000276
C    -1.290326   -0.622023    0.007771    0.001322   -0.000904    0.000088
N    -1.023455    0.677826   -0.093663   -0.120054    0.085400   -0.010841
C     0.167668    1.391703   -0.119608    0.001218   -0.000964    0.000124
O    -2.334375   -1.198106    0.024132   -0.001238   -0.000740    0.000032
O     0.193551    2.595217   -0.217220   -0.000114    0.000658   -0.000062
H     2.123242   -1.478827    0.173842   -0.000685    0.001028   -0.000114
H    -0.115704   -2.015135    0.989019    0.002257    0.008050   -0.014017
H    -2.454398    1.675987   -0.221563    1.629727   -1.140324    0.145865
H     2.334754    1.034650   -0.036143    0.000416   -0.001638    0.000128
H    -0.072181   -2.166232   -0.637195    0.001657    0.010392    0.012280
13
* Frequency(38) 3536.2326
C     1.365423    0.534002   -0.017807    0.001473   -0.000016    0.000039
C     1.281878   -0.788596    0.093253   -0.000051   -0.000204    0.000013
N    -0.021203   -1.449593    0.118356    0.000657   -0.002737    0.000276
C    -1.290265   -0.622064    0.007775    0.001322   -0.000904    0.000088
N    -1.029011    0.681779   -0.094165   -0.120054    0.085400   -0.010841
C     0.167724    1.391658   -0.119603    0.001218   -0.000964    0.000124
O    -2.334432   -1.198140    0.024134   -0.001238   -0.000740    0.000032
O     0.193546    2.595247   -0.217223   -0.000114    0.000658   -0.000062
H     2.123211   -1.478779    0.173837   -0.000685    0.001028   -0.000114
H    -0.115600   -2.014763    0.988370    0.002257    0.008050   -0.014017
H    -2.378971    1.623210   -0.214812    1.629727   -1.140324    0.145865
H     2.334773    1.034574   -0.036137    0.000416   -0.001638    0.000128
H    -0.072104   -2.165751   -0.636627    0.001657    0.010392    0.012280
13
* Frequency(38) 3536.2326
C     1.365538    0.534001   -0.017804    0.001473   -0.000016    0.000039
C     1.281874   -0.788611    0.093254   -0.000051   -0.000204    0.000013
N    -0.021152   -1.449807    0.118378    0.000657   -0.002737    0.000276
C    -1.290162   -0.622135    0.007782    0.001322   -0.000904    0.000088
N    -1.038379    0.688443   -0.095011   -0.120054    0.085400   -0.010841
C     0.167819    1.391583   -0.119593    0.001218   -0.000964    0.000124
O    -2.334529   -1.198198    0.024136   -0.001238   -0.000740    0.000032
O     0.193537    2.595299   -0.217228   -0.000114    0.000658   -0.000062
H     2.123157   -1.478699    0.173828   -0.000685    0.001028   -0.000114
H    -0.115424   -2.014135    0.987277    0.002257    0.008050   -0.014017
H    -2.251798    1.534227   -0.203430    1.629727   -1.140324    0.145865
H     2.334805    1.034446   -0.036127    0.000416   -0.001638    0.000128
H    -0.071975   -2.164940   -0.635669    0.001657    0.010392    0.012280
13
* Frequency(38) 3536.2326
C     1.365688    0.533999   -0.017800    0.001473   -0.000016    0.000039
C     1.281869   -0.788632    0.093255   -0.000051   -0.000204    0.000013
N    -0.021085   -1.450084    0.118406    0.000657   -0.002737    0.000276
C    -1.290028   -0.622227    0.007791    0.001322   -0.000904    0.000088
N    -1.050544    0.697096   -0.096109   -0.120054    0.085400   -0.010841
C     0.167943    1.391485   -0.119580    0.001218   -0.000964    0.000124
O    -2.334654   -1.198273    0.024140   -0.001238   -0.000740    0.000032
O     0.193526    2.595365   -0.217234   -0.000114    0.000658   -0.000062
H     2.123088   -1.478595    0.173816   -0.000685    0.001028   -0.000114
H    -0.115195   -2.013319    0.985856    0.002257    0.008050   -0.014017
H    -2.086658    1.418678   -0.188649    1.629727   -1.140324    0.145865
H     2.334847    1.034280   -0.036114    0.000416   -0.001638    0.000128
H    -0.071807   -2.163887   -0.634424    0.001657    0.010392    0.012280
13
* Frequency(38) 3536.2326
C     1.365855    0.533997   -0.017795    0.001473   -0.000016    0.000039
C     1.281863   -0.788655    0.093257   -0.000051   -0.000204    0.000013
N    -0.021011   -1.450395    0.118437    0.000657   -0.002737    0.000276
C    -1.289878   -0.622329    0.007801    0.001322   -0.000904    0.000088
N    -1.064188    0.706802   -0.097341   -0.120054    0.085400   -0.010841
C     0.168081    1.391376   -0.119566    0.001218   -0.000964    0.000124
O    -2.334795   -1.198357    0.024143   -0.001238   -0.000740    0.000032
O     0.193513    2.595440   -0.217241   -0.000114    0.000658   -0.000062
H     2.123010   -1.478478    0.173803   -0.000685    0.001028   -0.000114
H    -0.114939   -2.012404    0.984263    0.002257    0.008050   -0.014017
H    -1.901448    1.289086   -0.172072    1.629727   -1.140324    0.145865
H     2.334895    1.034094   -0.036100    0.000416   -0.001638    0.000128
H    -0.071619   -2.162707   -0.633029    0.001657    0.010392    0.012280
