13
* (null), Energy   -1000.0000000
C     1.621188    0.403598    0.009016    0.001918   -0.021609    0.001903
C     1.539018   -0.919147    0.120543   -0.133954   -0.113845    0.001693
N     0.234586   -1.584887    0.143046    0.087510   -0.017863    0.007362
C    -1.040982   -0.751715    0.035244   -0.105867    0.262358   -0.023154
N    -0.811196    0.577219   -0.071669   -0.139496   -0.256598    0.016322
C     0.423111    1.261638   -0.096194    0.360273    0.050791    0.005898
O    -2.084970   -1.326745    0.055920    0.083275    0.043022   -0.001856
O     0.451027    2.464431   -0.197533   -0.025440    0.024558   -0.003130
H     2.382077   -1.607559    0.201521    0.154612    0.234847   -0.009655
H     0.139969   -2.151905    1.007849   -0.286887    0.059650    0.007552
H    -1.647994    1.161186   -0.147295   -0.653138   -0.993829    0.081238
H     2.590366    0.904195   -0.008805   -0.657420    1.252162   -0.119066
H     0.188398   -2.293879   -0.614969   -0.210862    0.071041   -0.047252
13
* Frequency(24) 1252.6706
C     1.621406    0.401142    0.009232    0.001918   -0.021609    0.001903
C     1.523795   -0.932085    0.120735   -0.133954   -0.113845    0.001693
N     0.244531   -1.586917    0.143883    0.087510   -0.017863    0.007362
C    -1.053013   -0.721899    0.032613   -0.105867    0.262358   -0.023154
N    -0.827049    0.548058   -0.069814   -0.139496   -0.256598    0.016322
C     0.464054    1.267410   -0.095523    0.360273    0.050791    0.005898
O    -2.075506   -1.321856    0.055709    0.083275    0.043022   -0.001856
O     0.448136    2.467222   -0.197889   -0.025440    0.024558   -0.003130
H     2.399648   -1.580870    0.200423    0.154612    0.234847   -0.009655
H     0.107366   -2.145126    1.008707   -0.286887    0.059650    0.007552
H    -1.722220    1.048243   -0.138063   -0.653138   -0.993829    0.081238
H     2.515653    1.046496   -0.022336   -0.657420    1.252162   -0.119066
H     0.164434   -2.285805   -0.620339   -0.210862    0.071041   -0.047252
13
* Frequency(24) 1252.6706
C     1.621600    0.398953    0.009425    0.001918   -0.021609    0.001903
C     1.510221   -0.943621    0.120907   -0.133954   -0.113845    0.001693
N     0.253398   -1.588727    0.144629    0.087510   -0.017863    0.007362
C    -1.063741   -0.695314    0.030267   -0.105867    0.262358   -0.023154
N    -0.841185    0.522057   -0.068160   -0.139496   -0.256598    0.016322
C     0.500561    1.272557   -0.094926    0.360273    0.050791    0.005898
O    -2.067068   -1.317496    0.055521    0.083275    0.043022   -0.001856
O     0.445558    2.469710   -0.198206   -0.025440    0.024558   -0.003130
H     2.415315   -1.557073    0.199445    0.154612    0.234847   -0.009655
H     0.078296   -2.139081    1.009472   -0.286887    0.059650    0.007552
H    -1.788402    0.947538   -0.129831   -0.653138   -0.993829    0.081238
H     2.449037    1.173378   -0.034401   -0.657420    1.252162   -0.119066
H     0.143068   -2.278607   -0.625127   -0.210862    0.071041   -0.047252
13
* Frequency(24) 1252.6706
C     1.621750    0.397267    0.009574    0.001918   -0.021609    0.001903
C     1.499768   -0.952505    0.121039   -0.133954   -0.113845    0.001693
N     0.260227   -1.590121    0.145203    0.087510   -0.017863    0.007362
C    -1.072002   -0.674841    0.028460   -0.105867    0.262358   -0.023154
N    -0.852070    0.502034   -0.066886   -0.139496   -0.256598    0.016322
C     0.528674    1.276521   -0.094465    0.360273    0.050791    0.005898
O    -2.060569   -1.314139    0.055376    0.083275    0.043022   -0.001856
O     0.443573    2.471626   -0.198450   -0.025440    0.024558   -0.003130
H     2.427380   -1.538747    0.198692    0.154612    0.234847   -0.009655
H     0.055909   -2.134427    1.010061   -0.286887    0.059650    0.007552
H    -1.839369    0.869986   -0.123492   -0.653138   -0.993829    0.081238
H     2.397736    1.271088   -0.043692   -0.657420    1.252162   -0.119066
H     0.126613   -2.273063   -0.628814   -0.210862    0.071041   -0.047252
13
* Frequency(24) 1252.6706
C     1.621839    0.396266    0.009662    0.001918   -0.021609    0.001903
C     1.493569   -0.957774    0.121117   -0.133954   -0.113845    0.001693
N     0.264277   -1.590948    0.145544    0.087510   -0.017863    0.007362
C    -1.076901   -0.662699    0.027388   -0.105867    0.262358   -0.023154
N    -0.858526    0.490158   -0.066131   -0.139496   -0.256598    0.016322
C     0.545348    1.278871   -0.094192    0.360273    0.050791    0.005898
O    -2.056715   -1.312148    0.055291    0.083275    0.043022   -0.001856
O     0.442396    2.472763   -0.198595   -0.025440    0.024558   -0.003130
H     2.434535   -1.527878    0.198245    0.154612    0.234847   -0.009655
H     0.042631   -2.131666    1.010411   -0.286887    0.059650    0.007552
H    -1.869597    0.823990   -0.119732   -0.653138   -0.993829    0.081238
H     2.367310    1.329041   -0.049203   -0.657420    1.252162   -0.119066
H     0.116854   -2.269775   -0.631001   -0.210862    0.071041   -0.047252
13
* Frequency(24) 1252.6706
C     1.621857    0.396061    0.009680    0.001918   -0.021609    0.001903
C     1.492294   -0.958857    0.121133   -0.133954   -0.113845    0.001693
N     0.265110   -1.591117    0.145614    0.087510   -0.017863    0.007362
C    -1.077909   -0.660203    0.027168   -0.105867    0.262358   -0.023154
N    -0.859853    0.487716   -0.065976   -0.139496   -0.256598    0.016322
C     0.548776    1.279354   -0.094136    0.360273    0.050791    0.005898
O    -2.055923   -1.311739    0.055273    0.083275    0.043022   -0.001856
O     0.442154    2.472997   -0.198625   -0.025440    0.024558   -0.003130
H     2.436006   -1.525643    0.198153    0.154612    0.234847   -0.009655
H     0.039902   -2.131098    1.010483   -0.286887    0.059650    0.007552
H    -1.875812    0.814534   -0.118959   -0.653138   -0.993829    0.081238
H     2.361055    1.340954   -0.050335   -0.657420    1.252162   -0.119066
H     0.114848   -2.269099   -0.631450   -0.210862    0.071041   -0.047252
13
* Frequency(24) 1252.6706
C     1.621803    0.396672    0.009626    0.001918   -0.021609    0.001903
C     1.496083   -0.955637    0.121085   -0.133954   -0.113845    0.001693
N     0.262635   -1.590612    0.145406    0.087510   -0.017863    0.007362
C    -1.074914   -0.667623    0.027823   -0.105867    0.262358   -0.023154
N    -0.855908    0.494974   -0.066437   -0.139496   -0.256598    0.016322
C     0.538586    1.277918   -0.094303    0.360273    0.050791    0.005898
O    -2.058278   -1.312955    0.055325    0.083275    0.043022   -0.001856
O     0.442873    2.472302   -0.198536   -0.025440    0.024558   -0.003130
H     2.431633   -1.532286    0.198426    0.154612    0.234847   -0.009655
H     0.048016   -2.132785    1.010269   -0.286887    0.059650    0.007552
H    -1.857338    0.842643   -0.121257   -0.653138   -0.993829    0.081238
H     2.379649    1.305538   -0.046968   -0.657420    1.252162   -0.119066
H     0.120812   -2.271108   -0.630114   -0.210862    0.071041   -0.047252
13
* Frequency(24) 1252.6706
C     1.621682    0.398034    0.009506    0.001918   -0.021609    0.001903
C     1.504524   -0.948463    0.120979   -0.133954   -0.113845    0.001693
N     0.257120   -1.589487    0.144942    0.087510   -0.017863    0.007362
C    -1.068243   -0.684156    0.029282   -0.105867    0.262358   -0.023154
N    -0.847117    0.511144   -0.067466   -0.139496   -0.256598    0.016322
C     0.515883    1.274717   -0.094675    0.360273    0.050791    0.005898
O    -2.063526   -1.315667    0.055442    0.083275    0.043022   -0.001856
O     0.444477    2.470754   -0.198339   -0.025440    0.024558   -0.003130
H     2.421890   -1.547085    0.199034    0.154612    0.234847   -0.009655
H     0.066095   -2.136544    1.009793   -0.286887    0.059650    0.007552
H    -1.816179    0.905272   -0.126377   -0.653138   -0.993829    0.081238
H     2.421078    1.226631   -0.039465   -0.657420    1.252162   -0.119066
H     0.134100   -2.275585   -0.627136   -0.210862    0.071041   -0.047252
13
* Frequency(24) 1252.6706
C     1.621508    0.399999    0.009333    0.001918   -0.021609    0.001903
C     1.516704   -0.938112    0.120825   -0.133954   -0.113845    0.001693
N     0.249163   -1.587862    0.144272    0.087510   -0.017863    0.007362
C    -1.058617   -0.708011    0.031387   -0.105867    0.262358   -0.023154
N    -0.834434    0.534474   -0.068950   -0.139496   -0.256598    0.016322
C     0.483126    1.270099   -0.095211    0.360273    0.050791    0.005898
O    -2.071098   -1.319578    0.055611    0.083275    0.043022   -0.001856
O     0.446790    2.468522   -0.198054   -0.025440    0.024558   -0.003130
H     2.407833   -1.568438    0.199912    0.154612    0.234847   -0.009655
H     0.092179   -2.141968    1.009107   -0.286887    0.059650    0.007552
H    -1.756795    0.995633   -0.133763   -0.653138   -0.993829    0.081238
H     2.480852    1.112782   -0.028639   -0.657420    1.252162   -0.119066
H     0.153272   -2.282044   -0.622840   -0.210862    0.071041   -0.047252
13
* Frequency(24) 1252.6706
C     1.621299    0.402353    0.009126    0.001918   -0.021609    0.001903
C     1.531301   -0.925706    0.120640   -0.133954   -0.113845    0.001693
N     0.239627   -1.585916    0.143470    0.087510   -0.017863    0.007362
C    -1.047081   -0.736601    0.033911   -0.105867    0.262358   -0.023154
N    -0.819232    0.562437   -0.070729   -0.139496   -0.256598    0.016322
C     0.443866    1.264564   -0.095854    0.360273    0.050791    0.005898
O    -2.080172   -1.324266    0.055813    0.083275    0.043022   -0.001856
O     0.449562    2.465845   -0.197713   -0.025440    0.024558   -0.003130
H     2.390984   -1.594030    0.200964    0.154612    0.234847   -0.009655
H     0.123442   -2.148468    1.008284   -0.286887    0.059650    0.007552
H    -1.685620    1.103934   -0.142616   -0.653138   -0.993829    0.081238
H     2.552493    0.976329   -0.015664   -0.657420    1.252162   -0.119066
H     0.176250   -2.289786   -0.617691   -0.210862    0.071041   -0.047252
13
* Frequency(24) 1252.6706
C     1.621078    0.404843    0.008906    0.001918   -0.021609    0.001903
C     1.546735   -0.912589    0.120445   -0.133954   -0.113845    0.001693
N     0.229545   -1.583858    0.142622    0.087510   -0.017863    0.007362
C    -1.034883   -0.766829    0.036578   -0.105867    0.262358   -0.023154
N    -0.803160    0.592001   -0.072609   -0.139496   -0.256598    0.016322
C     0.402356    1.258712   -0.096533    0.360273    0.050791    0.005898
O    -2.089767   -1.329223    0.056027    0.083275    0.043022   -0.001856
O     0.452493    2.463016   -0.197353   -0.025440    0.024558   -0.003130
H     2.373170   -1.621088    0.202077    0.154612    0.234847   -0.009655
H     0.156496   -2.155341    1.007414   -0.286887    0.059650    0.007552
H    -1.610368    1.218439   -0.151975   -0.653138   -0.993829    0.081238
H     2.628238    0.832060   -0.001945   -0.657420    1.252162   -0.119066
H     0.200545   -2.297971   -0.612247   -0.210862    0.071041   -0.047252
13
* Frequency(24) 1252.6706
C     1.620869    0.407198    0.008699    0.001918   -0.021609    0.001903
C     1.561332   -0.900183    0.120261   -0.133954   -0.113845    0.001693
N     0.220008   -1.581911    0.141820    0.087510   -0.017863    0.007362
C    -1.023346   -0.795419    0.039102   -0.105867    0.262358   -0.023154
N    -0.787959    0.619964   -0.074388   -0.139496   -0.256598    0.016322
C     0.363096    1.253177   -0.097176    0.360273    0.050791    0.005898
O    -2.098842   -1.333911    0.056230    0.083275    0.043022   -0.001856
O     0.455265    2.460340   -0.197012   -0.025440    0.024558   -0.003130
H     2.356321   -1.646680    0.203129    0.154612    0.234847   -0.009655
H     0.187759   -2.161841    1.006591   -0.286887    0.059650    0.007552
H    -1.539193    1.326740   -0.160828   -0.653138   -0.993829    0.081238
H     2.699880    0.695608    0.011030   -0.657420    1.252162   -0.119066
H     0.223523   -2.305713   -0.607098   -0.210862    0.071041   -0.047252
13
* Frequency(24) 1252.6706
C     1.620694    0.409162    0.008526    0.001918   -0.021609    0.001903
C     1.573511   -0.889832    0.120107   -0.133954   -0.113845    0.001693
N     0.212052   -1.580287    0.141150    0.087510   -0.017863    0.007362
C    -1.013721   -0.819273    0.041207   -0.105867    0.262358   -0.023154
N    -0.775276    0.643294   -0.075872   -0.139496   -0.256598    0.016322
C     0.330340    1.248559   -0.097712    0.360273    0.050791    0.005898
O    -2.106413   -1.337823    0.056398    0.083275    0.043022   -0.001856
O     0.457578    2.458107   -0.196727   -0.025440    0.024558   -0.003130
H     2.342264   -1.668033    0.204007    0.154612    0.234847   -0.009655
H     0.213843   -2.167265    1.005904   -0.286887    0.059650    0.007552
H    -1.479809    1.417100   -0.168214   -0.653138   -0.993829    0.081238
H     2.759654    0.581759    0.021855   -0.657420    1.252162   -0.119066
H     0.242695   -2.312172   -0.602801   -0.210862    0.071041   -0.047252
13
* Frequency(24) 1252.6706
C     1.620574    0.410524    0.008406    0.001918   -0.021609    0.001903
C     1.581953   -0.882657    0.120000   -0.133954   -0.113845    0.001693
N     0.206537   -1.579161    0.140687    0.087510   -0.017863    0.007362
C    -1.007049   -0.835806    0.042666   -0.105867    0.262358   -0.023154
N    -0.766485    0.659464   -0.076900   -0.139496   -0.256598    0.016322
C     0.307636    1.245359   -0.098084    0.360273    0.050791    0.005898
O    -2.111661   -1.340534    0.056515    0.083275    0.043022   -0.001856
O     0.459181    2.456559   -0.196530   -0.025440    0.024558   -0.003130
H     2.332521   -1.682832    0.204615    0.154612    0.234847   -0.009655
H     0.231922   -2.171024    1.005428   -0.286887    0.059650    0.007552
H    -1.438650    1.479729   -0.173334   -0.653138   -0.993829    0.081238
H     2.801082    0.502851    0.029358   -0.657420    1.252162   -0.119066
H     0.255983   -2.316649   -0.599824   -0.210862    0.071041   -0.047252
13
* Frequency(24) 1252.6706
C     1.620519    0.411135    0.008352    0.001918   -0.021609    0.001903
C     1.585742   -0.879437    0.119952   -0.133954   -0.113845    0.001693
N     0.204062   -1.578656    0.140478    0.087510   -0.017863    0.007362
C    -1.004055   -0.843226    0.043321   -0.105867    0.262358   -0.023154
N    -0.762539    0.666722   -0.077362   -0.139496   -0.256598    0.016322
C     0.297446    1.243922   -0.098251    0.360273    0.050791    0.005898
O    -2.114016   -1.341751    0.056568    0.083275    0.043022   -0.001856
O     0.459901    2.455865   -0.196441   -0.025440    0.024558   -0.003130
H     2.328148   -1.689474    0.204889    0.154612    0.234847   -0.009655
H     0.240036   -2.172711    1.005215   -0.286887    0.059650    0.007552
H    -1.420177    1.507838   -0.175632   -0.653138   -0.993829    0.081238
H     2.819677    0.467435    0.032726   -0.657420    1.252162   -0.119066
H     0.261947   -2.318658   -0.598487   -0.210862    0.071041   -0.047252
13
* Frequency(24) 1252.6706
C     1.620538    0.410930    0.008370    0.001918   -0.021609    0.001903
C     1.584467   -0.880521    0.119968   -0.133954   -0.113845    0.001693
N     0.204895   -1.578826    0.140548    0.087510   -0.017863    0.007362
C    -1.005062   -0.840730    0.043101   -0.105867    0.262358   -0.023154
N    -0.763867    0.664280   -0.077207   -0.139496   -0.256598    0.016322
C     0.300874    1.244405   -0.098195    0.360273    0.050791    0.005898
O    -2.113224   -1.341342    0.056550    0.083275    0.043022   -0.001856
O     0.459659    2.456098   -0.196471   -0.025440    0.024558   -0.003130
H     2.329619   -1.687240    0.204797    0.154612    0.234847   -0.009655
H     0.237307   -2.172143    1.005286   -0.286887    0.059650    0.007552
H    -1.426391    1.498382   -0.174859   -0.653138   -0.993829    0.081238
H     2.813422    0.479349    0.031593   -0.657420    1.252162   -0.119066
H     0.259941   -2.317982   -0.598937   -0.210862    0.071041   -0.047252
13
* Frequency(24) 1252.6706
C     1.620626    0.409930    0.008459    0.001918   -0.021609    0.001903
C     1.578267   -0.885790    0.120047   -0.133954   -0.113845    0.001693
N     0.208945   -1.579653    0.140889    0.087510   -0.017863    0.007362
C    -1.009962   -0.828588    0.042029   -0.105867    0.262358   -0.023154
N    -0.770323    0.652404   -0.076451   -0.139496   -0.256598    0.016322
C     0.317548    1.246756   -0.097922    0.360273    0.050791    0.005898
O    -2.109370   -1.339351    0.056464    0.083275    0.043022   -0.001856
O     0.458482    2.457235   -0.196616   -0.025440    0.024558   -0.003130
H     2.336774   -1.676371    0.204350    0.154612    0.234847   -0.009655
H     0.224029   -2.169383    1.005636   -0.286887    0.059650    0.007552
H    -1.456619    1.452386   -0.171099   -0.653138   -0.993829    0.081238
H     2.782995    0.537301    0.026083   -0.657420    1.252162   -0.119066
H     0.250182   -2.314694   -0.601124   -0.210862    0.071041   -0.047252
13
* Frequency(24) 1252.6706
C     1.620776    0.408243    0.008607    0.001918   -0.021609    0.001903
C     1.567814   -0.894673    0.120179   -0.133954   -0.113845    0.001693
N     0.215773   -1.581047    0.141464    0.087510   -0.017863    0.007362
C    -1.018223   -0.808115    0.040222   -0.105867    0.262358   -0.023154
N    -0.781208    0.632381   -0.075178   -0.139496   -0.256598    0.016322
C     0.345662    1.250719   -0.097461    0.360273    0.050791    0.005898
O    -2.102872   -1.335993    0.056319    0.083275    0.043022   -0.001856
O     0.456496    2.459151   -0.196860   -0.025440    0.024558   -0.003130
H     2.348839   -1.658045    0.203596    0.154612    0.234847   -0.009655
H     0.201642   -2.164728    1.006225   -0.286887    0.059650    0.007552
H    -1.507586    1.374834   -0.164759   -0.653138   -0.993829    0.081238
H     2.731694    0.635012    0.016791   -0.657420    1.252162   -0.119066
H     0.233727   -2.309151   -0.604811   -0.210862    0.071041   -0.047252
13
* Frequency(24) 1252.6706
C     1.620970    0.406054    0.008800    0.001918   -0.021609    0.001903
C     1.554241   -0.906209    0.120350   -0.133954   -0.113845    0.001693
N     0.224641   -1.582857    0.142209    0.087510   -0.017863    0.007362
C    -1.028951   -0.781530    0.037876   -0.105867    0.262358   -0.023154
N    -0.795343    0.606380   -0.073524   -0.139496   -0.256598    0.016322
C     0.382168    1.255866   -0.096864    0.360273    0.050791    0.005898
O    -2.094434   -1.331634    0.056131    0.083275    0.043022   -0.001856
O     0.453919    2.461640   -0.197177   -0.025440    0.024558   -0.003130
H     2.364506   -1.634248    0.202618    0.154612    0.234847   -0.009655
H     0.172572   -2.158683    1.006991   -0.286887    0.059650    0.007552
H    -1.573768    1.274130   -0.156528   -0.653138   -0.993829    0.081238
H     2.665078    0.761893    0.004727   -0.657420    1.252162   -0.119066
H     0.212361   -2.301952   -0.609599   -0.210862    0.071041   -0.047252
13
* Frequency(24) 1252.6706
C     1.621188    0.403598    0.009016    0.001918   -0.021609    0.001903
C     1.539018   -0.919147    0.120543   -0.133954   -0.113845    0.001693
N     0.234586   -1.584887    0.143046    0.087510   -0.017863    0.007362
C    -1.040982   -0.751715    0.035244   -0.105867    0.262358   -0.023154
N    -0.811196    0.577219   -0.071669   -0.139496   -0.256598    0.016322
C     0.423111    1.261638   -0.096194    0.360273    0.050791    0.005898
O    -2.084970   -1.326745    0.055920    0.083275    0.043022   -0.001856
O     0.451027    2.464431   -0.197533   -0.025440    0.024558   -0.003130
H     2.382077   -1.607559    0.201521    0.154612    0.234847   -0.009655
H     0.139969   -2.151905    1.007849   -0.286887    0.059650    0.007552
H    -1.647994    1.161186   -0.147295   -0.653138   -0.993829    0.081238
H     2.590366    0.904195   -0.008805   -0.657420    1.252162   -0.119066
H     0.188398   -2.293879   -0.614969   -0.210862    0.071041   -0.047252
