13
* (null), Energy   -1000.0000000
C     1.621188    0.403598    0.009016   -0.010161    0.028558    0.327448
C     1.539018   -0.919147    0.120543   -0.008403    0.017603    0.195378
N     0.234586   -1.584887    0.143046    0.008524   -0.043504   -0.453385
C    -1.040982   -0.751715    0.035244    0.005205   -0.001591    0.012203
N    -0.811196    0.577219   -0.071669    0.006160   -0.010138   -0.103642
C     0.423111    1.261638   -0.096194    0.001031    0.000166   -0.027155
O    -2.084970   -1.326745    0.055920   -0.007565    0.031316    0.328514
O     0.451027    2.464431   -0.197533    0.002418   -0.011639   -0.166792
H     2.382077   -1.607559    0.201521   -0.013578    0.037044    0.415111
H     0.139969   -2.151905    1.007849   -0.101745   -0.739334   -0.929589
H    -1.647994    1.161186   -0.147295    0.002100   -0.006806   -0.031262
H     2.590366    0.904195   -0.008805   -0.018095    0.057598    0.703755
H     0.188398   -2.293879   -0.614969    0.155865    0.551534   -1.036175
13
* Frequency(6)  -21.1075
C     1.620033    0.406844    0.046229   -0.010161    0.028558    0.327448
C     1.538063   -0.917147    0.142746   -0.008403    0.017603    0.195378
N     0.235555   -1.589831    0.091521    0.008524   -0.043504   -0.453385
C    -1.040390   -0.751895    0.036631    0.005205   -0.001591    0.012203
N    -0.810496    0.576067   -0.083447    0.006160   -0.010138   -0.103642
C     0.423228    1.261657   -0.099280    0.001031    0.000166   -0.027155
O    -2.085830   -1.323186    0.093254   -0.007565    0.031316    0.328514
O     0.451302    2.463108   -0.216488    0.002418   -0.011639   -0.166792
H     2.380534   -1.603349    0.248696   -0.013578    0.037044    0.415111
H     0.128406   -2.235926    0.902206   -0.101745   -0.739334   -0.929589
H    -1.647755    1.160413   -0.150848    0.002100   -0.006806   -0.031262
H     2.588309    0.910740    0.071173   -0.018095    0.057598    0.703755
H     0.206111   -2.231200   -0.732725    0.155865    0.551534   -1.036175
13
* Frequency(6)  -21.1075
C     1.619004    0.409737    0.079409   -0.010161    0.028558    0.327448
C     1.537212   -0.915363    0.162544   -0.008403    0.017603    0.195378
N     0.236418   -1.594239    0.045580    0.008524   -0.043504   -0.453385
C    -1.039863   -0.752057    0.037868    0.005205   -0.001591    0.012203
N    -0.809872    0.575040   -0.093949    0.006160   -0.010138   -0.103642
C     0.423333    1.261674   -0.102031    0.001031    0.000166   -0.027155
O    -2.086596   -1.320013    0.126542   -0.007565    0.031316    0.328514
O     0.451547    2.461928   -0.233389    0.002418   -0.011639   -0.166792
H     2.379158   -1.599595    0.290759   -0.013578    0.037044    0.415111
H     0.118096   -2.310842    0.808011   -0.101745   -0.739334   -0.929589
H    -1.647543    1.159723   -0.154016    0.002100   -0.006806   -0.031262
H     2.586476    0.916577    0.142485   -0.018095    0.057598    0.703755
H     0.221905   -2.175313   -0.837720    0.155865    0.551534   -1.036175
13
* Frequency(6)  -21.1075
C     1.618211    0.411966    0.104961   -0.010161    0.028558    0.327448
C     1.536556   -0.913990    0.177790   -0.008403    0.017603    0.195378
N     0.237084   -1.597634    0.010200    0.008524   -0.043504   -0.453385
C    -1.039457   -0.752181    0.038820    0.005205   -0.001591    0.012203
N    -0.809391    0.574249   -0.102037    0.006160   -0.010138   -0.103642
C     0.423413    1.261687   -0.104150    0.001031    0.000166   -0.027155
O    -2.087186   -1.317569    0.152178   -0.007565    0.031316    0.328514
O     0.451736    2.461020   -0.246404    0.002418   -0.011639   -0.166792
H     2.378098   -1.596705    0.323152   -0.013578    0.037044    0.415111
H     0.110157   -2.368535    0.735471   -0.101745   -0.739334   -0.929589
H    -1.647379    1.159192   -0.156456    0.002100   -0.006806   -0.031262
H     2.585064    0.921071    0.197401   -0.018095    0.057598    0.703755
H     0.234067   -2.132275   -0.918577    0.155865    0.551534   -1.036175
13
* Frequency(6)  -21.1075
C     1.617741    0.413288    0.120116   -0.010161    0.028558    0.327448
C     1.536167   -0.913175    0.186833   -0.008403    0.017603    0.195378
N     0.237478   -1.599647   -0.010783    0.008524   -0.043504   -0.453385
C    -1.039216   -0.752254    0.039385    0.005205   -0.001591    0.012203
N    -0.809106    0.573779   -0.106834    0.006160   -0.010138   -0.103642
C     0.423461    1.261695   -0.105407    0.001031    0.000166   -0.027155
O    -2.087537   -1.316120    0.167382   -0.007565    0.031316    0.328514
O     0.451848    2.460482   -0.254124    0.002418   -0.011639   -0.166792
H     2.377470   -1.594990    0.342364   -0.013578    0.037044    0.415111
H     0.105448   -2.402753    0.692448   -0.101745   -0.739334   -0.929589
H    -1.647282    1.158877   -0.157902    0.002100   -0.006806   -0.031262
H     2.584226    0.923737    0.229972   -0.018095    0.057598    0.703755
H     0.241281   -2.106749   -0.966533    0.155865    0.551534   -1.036175
13
* Frequency(6)  -21.1075
C     1.617644    0.413559    0.123231   -0.010161    0.028558    0.327448
C     1.536087   -0.913007    0.188692   -0.008403    0.017603    0.195378
N     0.237559   -1.600061   -0.015097    0.008524   -0.043504   -0.453385
C    -1.039166   -0.752269    0.039501    0.005205   -0.001591    0.012203
N    -0.809048    0.573683   -0.107820    0.006160   -0.010138   -0.103642
C     0.423471    1.261696   -0.105665    0.001031    0.000166   -0.027155
O    -2.087609   -1.315822    0.170508   -0.007565    0.031316    0.328514
O     0.451871    2.460371   -0.255711    0.002418   -0.011639   -0.166792
H     2.377341   -1.594638    0.346313   -0.013578    0.037044    0.415111
H     0.104480   -2.409788    0.683604   -0.101745   -0.739334   -0.929589
H    -1.647262    1.158812   -0.158200    0.002100   -0.006806   -0.031262
H     2.584054    0.924285    0.236668   -0.018095    0.057598    0.703755
H     0.242764   -2.101501   -0.976391    0.155865    0.551534   -1.036175
13
* Frequency(6)  -21.1075
C     1.617931    0.412752    0.113970   -0.010161    0.028558    0.327448
C     1.536325   -0.913505    0.183165   -0.008403    0.017603    0.195378
N     0.237318   -1.598831   -0.002273    0.008524   -0.043504   -0.453385
C    -1.039314   -0.752224    0.039156    0.005205   -0.001591    0.012203
N    -0.809222    0.573970   -0.104888    0.006160   -0.010138   -0.103642
C     0.423442    1.261692   -0.104897    0.001031    0.000166   -0.027155
O    -2.087395   -1.316708    0.161216   -0.007565    0.031316    0.328514
O     0.451803    2.460700   -0.250993    0.002418   -0.011639   -0.166792
H     2.377725   -1.595685    0.334572   -0.013578    0.037044    0.415111
H     0.107358   -2.388876    0.709896   -0.101745   -0.739334   -0.929589
H    -1.647321    1.159005   -0.157316    0.002100   -0.006806   -0.031262
H     2.584566    0.922656    0.216763   -0.018095    0.057598    0.703755
H     0.238356   -2.117101   -0.947084    0.155865    0.551534   -1.036175
13
* Frequency(6)  -21.1075
C     1.618572    0.410952    0.093335   -0.010161    0.028558    0.327448
C     1.536854   -0.914615    0.170853   -0.008403    0.017603    0.195378
N     0.236781   -1.596089    0.026298    0.008524   -0.043504   -0.453385
C    -1.039642   -0.752124    0.038387    0.005205   -0.001591    0.012203
N    -0.809610    0.574609   -0.098357    0.006160   -0.010138   -0.103642
C     0.423377    1.261681   -0.103186    0.001031    0.000166   -0.027155
O    -2.086918   -1.318681    0.140514   -0.007565    0.031316    0.328514
O     0.451650    2.461433   -0.240482    0.002418   -0.011639   -0.166792
H     2.378581   -1.598020    0.308413   -0.013578    0.037044    0.415111
H     0.113769   -2.342286    0.768476   -0.101745   -0.739334   -0.929589
H    -1.647453    1.159434   -0.155346    0.002100   -0.006806   -0.031262
H     2.585706    0.919026    0.172415   -0.018095    0.057598    0.703755
H     0.228533   -2.151857   -0.881787    0.155865    0.551534   -1.036175
13
* Frequency(6)  -21.1075
C     1.619495    0.408355    0.063563   -0.010161    0.028558    0.327448
C     1.537618   -0.916215    0.153089   -0.008403    0.017603    0.195378
N     0.236006   -1.592134    0.067520    0.008524   -0.043504   -0.453385
C    -1.040115   -0.751980    0.037277    0.005205   -0.001591    0.012203
N    -0.810170    0.575530   -0.088934    0.006160   -0.010138   -0.103642
C     0.423283    1.261666   -0.100717    0.001031    0.000166   -0.027155
O    -2.086230   -1.321528    0.110645   -0.007565    0.031316    0.328514
O     0.451430    2.462492   -0.225317    0.002418   -0.011639   -0.166792
H     2.379815   -1.601388    0.270671   -0.013578    0.037044    0.415111
H     0.123020   -2.275064    0.852996   -0.101745   -0.739334   -0.929589
H    -1.647644    1.160052   -0.152503    0.002100   -0.006806   -0.031262
H     2.587352    0.913790    0.108428   -0.018095    0.057598    0.703755
H     0.214362   -2.202003   -0.787576    0.155865    0.551534   -1.036175
13
* Frequency(6)  -21.1075
C     1.620603    0.405243    0.027880   -0.010161    0.028558    0.327448
C     1.538534   -0.918133    0.131798   -0.008403    0.017603    0.195378
N     0.235077   -1.587393    0.116927    0.008524   -0.043504   -0.453385
C    -1.040682   -0.751806    0.035947    0.005205   -0.001591    0.012203
N    -0.810841    0.576635   -0.077639    0.006160   -0.010138   -0.103642
C     0.423170    1.261648   -0.097758    0.001031    0.000166   -0.027155
O    -2.085406   -1.324941    0.074845   -0.007565    0.031316    0.328514
O     0.451167    2.463760   -0.207141    0.002418   -0.011639   -0.166792
H     2.381295   -1.605425    0.225434   -0.013578    0.037044    0.415111
H     0.134108   -2.194496    0.954297   -0.101745   -0.739334   -0.929589
H    -1.647873    1.160794   -0.149096    0.002100   -0.006806   -0.031262
H     2.589323    0.907513    0.031737   -0.018095    0.057598    0.703755
H     0.197377   -2.262106   -0.674661    0.155865    0.551534   -1.036175
13
* Frequency(6)  -21.1075
C     1.621774    0.401953   -0.009848   -0.010161    0.028558    0.327448
C     1.539502   -0.920161    0.109287   -0.008403    0.017603    0.195378
N     0.234095   -1.582381    0.169165    0.008524   -0.043504   -0.453385
C    -1.041282   -0.751623    0.034541    0.005205   -0.001591    0.012203
N    -0.811551    0.577803   -0.065698    0.006160   -0.010138   -0.103642
C     0.423052    1.261629   -0.094629    0.001031    0.000166   -0.027155
O    -2.084534   -1.328549    0.036995   -0.007565    0.031316    0.328514
O     0.450888    2.465101   -0.187924    0.002418   -0.011639   -0.166792
H     2.382859   -1.609693    0.177607   -0.013578    0.037044    0.415111
H     0.145830   -2.109313    1.061401   -0.101745   -0.739334   -0.929589
H    -1.648115    1.161578   -0.145495    0.002100   -0.006806   -0.031262
H     2.591408    0.900877   -0.049347   -0.018095    0.057598    0.703755
H     0.179419   -2.325651   -0.555277    0.155865    0.551534   -1.036175
13
* Frequency(6)  -21.1075
C     1.622881    0.398841   -0.045531   -0.010161    0.028558    0.327448
C     1.540418   -0.922080    0.087996   -0.008403    0.017603    0.195378
N     0.233166   -1.577640    0.218572    0.008524   -0.043504   -0.453385
C    -1.041849   -0.751450    0.033212    0.005205   -0.001591    0.012203
N    -0.812222    0.578908   -0.054404    0.006160   -0.010138   -0.103642
C     0.422939    1.261611   -0.091670    0.001031    0.000166   -0.027155
O    -2.083710   -1.331961    0.001196   -0.007565    0.031316    0.328514
O     0.450625    2.466370   -0.169748    0.002418   -0.011639   -0.166792
H     2.384339   -1.613730    0.132371   -0.013578    0.037044    0.415111
H     0.156918   -2.028745    1.162701   -0.101745   -0.739334   -0.929589
H    -1.648344    1.162320   -0.142088    0.002100   -0.006806   -0.031262
H     2.593380    0.894600   -0.126037   -0.018095    0.057598    0.703755
H     0.162433   -2.385754   -0.442361    0.155865    0.551534   -1.036175
13
* Frequency(6)  -21.1075
C     1.623805    0.396244   -0.075303   -0.010161    0.028558    0.327448
C     1.541182   -0.923680    0.070232   -0.008403    0.017603    0.195378
N     0.232391   -1.573684    0.259794    0.008524   -0.043504   -0.453385
C    -1.042322   -0.751305    0.032102    0.005205   -0.001591    0.012203
N    -0.812783    0.579830   -0.044981    0.006160   -0.010138   -0.103642
C     0.422846    1.261595   -0.089201    0.001031    0.000166   -0.027155
O    -2.083022   -1.334809   -0.028673   -0.007565    0.031316    0.328514
O     0.450405    2.467428   -0.154583    0.002418   -0.011639   -0.166792
H     2.385573   -1.617098    0.094628   -0.013578    0.037044    0.415111
H     0.166169   -1.961524    1.247221   -0.101745   -0.739334   -0.929589
H    -1.648535    1.162939   -0.139245    0.002100   -0.006806   -0.031262
H     2.595025    0.889363   -0.190024   -0.018095    0.057598    0.703755
H     0.148262   -2.435901   -0.348150    0.155865    0.551534   -1.036175
13
* Frequency(6)  -21.1075
C     1.624445    0.394445   -0.095938   -0.010161    0.028558    0.327448
C     1.541711   -0.924789    0.057920   -0.008403    0.017603    0.195378
N     0.231854   -1.570943    0.288366    0.008524   -0.043504   -0.453385
C    -1.042650   -0.751205    0.031333    0.005205   -0.001591    0.012203
N    -0.813171    0.580468   -0.038449    0.006160   -0.010138   -0.103642
C     0.422781    1.261585   -0.087490    0.001031    0.000166   -0.027155
O    -2.082545   -1.336782   -0.049375   -0.007565    0.031316    0.328514
O     0.450252    2.468161   -0.144073    0.002418   -0.011639   -0.166792
H     2.386429   -1.619432    0.068469   -0.013578    0.037044    0.415111
H     0.172580   -1.914933    1.305801   -0.101745   -0.739334   -0.929589
H    -1.648667    1.163367   -0.137275    0.002100   -0.006806   -0.031262
H     2.596165    0.885734   -0.234373   -0.018095    0.057598    0.703755
H     0.138440   -2.470657   -0.282853    0.155865    0.551534   -1.036175
13
* Frequency(6)  -21.1075
C     1.624732    0.393637   -0.105199   -0.010161    0.028558    0.327448
C     1.541949   -0.925287    0.052394   -0.008403    0.017603    0.195378
N     0.231613   -1.569712    0.301189    0.008524   -0.043504   -0.453385
C    -1.042797   -0.751160    0.030988    0.005205   -0.001591    0.012203
N    -0.813345    0.580755   -0.035518    0.006160   -0.010138   -0.103642
C     0.422752    1.261580   -0.086722    0.001031    0.000166   -0.027155
O    -2.082331   -1.337668   -0.058667   -0.007565    0.031316    0.328514
O     0.450184    2.468490   -0.139355    0.002418   -0.011639   -0.166792
H     2.386813   -1.620480    0.056728   -0.013578    0.037044    0.415111
H     0.175458   -1.894022    1.332094   -0.101745   -0.739334   -0.929589
H    -1.648726    1.163560   -0.136391    0.002100   -0.006806   -0.031262
H     2.596677    0.884104   -0.254278   -0.018095    0.057598    0.703755
H     0.134031   -2.486256   -0.253546    0.155865    0.551534   -1.036175
13
* Frequency(6)  -21.1075
C     1.624636    0.393909   -0.102084   -0.010161    0.028558    0.327448
C     1.541869   -0.925120    0.054253   -0.008403    0.017603    0.195378
N     0.231694   -1.570126    0.296875    0.008524   -0.043504   -0.453385
C    -1.042748   -0.751175    0.031104    0.005205   -0.001591    0.012203
N    -0.813286    0.580659   -0.036504    0.006160   -0.010138   -0.103642
C     0.422761    1.261582   -0.086980    0.001031    0.000166   -0.027155
O    -2.082403   -1.337370   -0.055541   -0.007565    0.031316    0.328514
O     0.450207    2.468380   -0.140942    0.002418   -0.011639   -0.166792
H     2.386684   -1.620127    0.060678   -0.013578    0.037044    0.415111
H     0.174490   -1.901056    1.323249   -0.101745   -0.739334   -0.929589
H    -1.648706    1.163495   -0.136689    0.002100   -0.006806   -0.031262
H     2.596505    0.884652   -0.247582   -0.018095    0.057598    0.703755
H     0.135514   -2.481009   -0.263405    0.155865    0.551534   -1.036175
13
* Frequency(6)  -21.1075
C     1.624165    0.395230   -0.086929   -0.010161    0.028558    0.327448
C     1.541480   -0.924305    0.063295   -0.008403    0.017603    0.195378
N     0.232088   -1.572140    0.275892    0.008524   -0.043504   -0.453385
C    -1.042507   -0.751249    0.031669    0.005205   -0.001591    0.012203
N    -0.813001    0.580189   -0.041301    0.006160   -0.010138   -0.103642
C     0.422809    1.261589   -0.088237    0.001031    0.000166   -0.027155
O    -2.082753   -1.335921   -0.040337   -0.007565    0.031316    0.328514
O     0.450319    2.467841   -0.148661    0.002418   -0.011639   -0.166792
H     2.386056   -1.618413    0.079890   -0.013578    0.037044    0.415111
H     0.169781   -1.935274    1.280226   -0.101745   -0.739334   -0.929589
H    -1.648609    1.163180   -0.138135    0.002100   -0.006806   -0.031262
H     2.595668    0.887318   -0.215011   -0.018095    0.057598    0.703755
H     0.142728   -2.455483   -0.311361    0.155865    0.551534   -1.036175
13
* Frequency(6)  -21.1075
C     1.623373    0.397459   -0.061377   -0.010161    0.028558    0.327448
C     1.540824   -0.922931    0.078541   -0.008403    0.017603    0.195378
N     0.232753   -1.575535    0.240512    0.008524   -0.043504   -0.453385
C    -1.042101   -0.751373    0.032621    0.005205   -0.001591    0.012203
N    -0.812521    0.579398   -0.049388    0.006160   -0.010138   -0.103642
C     0.422889    1.261602   -0.090356    0.001031    0.000166   -0.027155
O    -2.083343   -1.333477   -0.014702   -0.007565    0.031316    0.328514
O     0.450508    2.466933   -0.161677    0.002418   -0.011639   -0.166792
H     2.384996   -1.615522    0.112282   -0.013578    0.037044    0.415111
H     0.161841   -1.992967    1.207687   -0.101745   -0.739334   -0.929589
H    -1.648445    1.162649   -0.140575    0.002100   -0.006806   -0.031262
H     2.594256    0.891813   -0.160094   -0.018095    0.057598    0.703755
H     0.154891   -2.412444   -0.392218    0.155865    0.551534   -1.036175
13
* Frequency(6)  -21.1075
C     1.622343    0.400353   -0.028197   -0.010161    0.028558    0.327448
C     1.539973   -0.921148    0.098339   -0.008403    0.017603    0.195378
N     0.233617   -1.579943    0.194571    0.008524   -0.043504   -0.453385
C    -1.041573   -0.751534    0.033858    0.005205   -0.001591    0.012203
N    -0.811896    0.578371   -0.059890    0.006160   -0.010138   -0.103642
C     0.422994    1.261619   -0.093108    0.001031    0.000166   -0.027155
O    -2.084110   -1.330304    0.018586   -0.007565    0.031316    0.328514
O     0.450753    2.465753   -0.178578    0.002418   -0.011639   -0.166792
H     2.383620   -1.611769    0.154345   -0.013578    0.037044    0.415111
H     0.151532   -2.067883    1.113492   -0.101745   -0.739334   -0.929589
H    -1.648233    1.161960   -0.143743    0.002100   -0.006806   -0.031262
H     2.592422    0.897649   -0.088783   -0.018095    0.057598    0.703755
H     0.170684   -2.356558   -0.497213    0.155865    0.551534   -1.036175
13
* Frequency(6)  -21.1075
C     1.621188    0.403598    0.009016   -0.010161    0.028558    0.327448
C     1.539018   -0.919147    0.120543   -0.008403    0.017603    0.195378
N     0.234586   -1.584887    0.143046    0.008524   -0.043504   -0.453385
C    -1.040982   -0.751715    0.035244    0.005205   -0.001591    0.012203
N    -0.811196    0.577219   -0.071669    0.006160   -0.010138   -0.103642
C     0.423111    1.261638   -0.096194    0.001031    0.000166   -0.027155
O    -2.084970   -1.326745    0.055920   -0.007565    0.031316    0.328514
O     0.451027    2.464431   -0.197533    0.002418   -0.011639   -0.166792
H     2.382077   -1.607559    0.201521   -0.013578    0.037044    0.415111
H     0.139969   -2.151905    1.007849   -0.101745   -0.739334   -0.929589
H    -1.647994    1.161186   -0.147295    0.002100   -0.006806   -0.031262
H     2.590366    0.904195   -0.008805   -0.018095    0.057598    0.703755
H     0.188398   -2.293879   -0.614969    0.155865    0.551534   -1.036175
