13
* (null), Energy   -1000.0000000
C     1.621188    0.403598    0.009016   -0.043157    0.068544    0.060328
C     1.539018   -0.919147    0.120543   -0.099269    0.072397   -0.251607
N     0.234586   -1.584887    0.143046   -0.065893    0.076906   -0.012674
C    -1.040982   -0.751715    0.035244    0.092353    0.000131    0.380263
N    -0.811196    0.577219   -0.071669    0.043143   -0.063829    0.014051
C     0.423111    1.261638   -0.096194   -0.016840   -0.125538   -0.419086
O    -2.084970   -1.326745    0.055920    0.061284    0.047254   -0.125466
O     0.451027    2.464431   -0.197533    0.028594   -0.096309    0.130615
H     2.382077   -1.607559    0.201521   -0.163028    0.147813    0.966867
H     0.139969   -2.151905    1.007849    0.427486    0.129524    0.083663
H    -1.647994    1.161186   -0.147295    0.017600   -0.095441    0.110043
H     2.590366    0.904195   -0.008805   -0.100155    0.219371    1.407576
H     0.188398   -2.293879   -0.614969   -0.494990    0.010514    0.072811
13
* Frequency(14)  679.7479
C     1.616284    0.411388    0.015872   -0.043157    0.068544    0.060328
C     1.527736   -0.910920    0.091949   -0.099269    0.072397   -0.251607
N     0.227097   -1.576147    0.141606   -0.065893    0.076906   -0.012674
C    -1.030487   -0.751700    0.078459    0.092353    0.000131    0.380263
N    -0.806293    0.569965   -0.070072    0.043143   -0.063829    0.014051
C     0.421197    1.247372   -0.143821   -0.016840   -0.125538   -0.419086
O    -2.078005   -1.321375    0.041662    0.061284    0.047254   -0.125466
O     0.454277    2.453486   -0.182689    0.028594   -0.096309    0.130615
H     2.363550   -1.590761    0.311400   -0.163028    0.147813    0.966867
H     0.188550   -2.137185    1.017357    0.427486    0.129524    0.083663
H    -1.645994    1.150340   -0.134790    0.017600   -0.095441    0.110043
H     2.578984    0.929125    0.151159   -0.100155    0.219371    1.407576
H     0.132145   -2.292684   -0.606694   -0.494990    0.010514    0.072811
13
* Frequency(14)  679.7479
C     1.611911    0.418333    0.021985   -0.043157    0.068544    0.060328
C     1.517678   -0.903584    0.066454   -0.099269    0.072397   -0.251607
N     0.220421   -1.568354    0.140322   -0.065893    0.076906   -0.012674
C    -1.021128   -0.751686    0.116991    0.092353    0.000131    0.380263
N    -0.801922    0.563497   -0.068648    0.043143   -0.063829    0.014051
C     0.419491    1.234651   -0.186286   -0.016840   -0.125538   -0.419086
O    -2.071795   -1.316586    0.028948    0.061284    0.047254   -0.125466
O     0.457174    2.443727   -0.169454    0.028594   -0.096309    0.130615
H     2.347030   -1.575783    0.409372   -0.163028    0.147813    0.966867
H     0.231867   -2.124060    1.025834    0.427486    0.129524    0.083663
H    -1.644210    1.140669   -0.123639    0.017600   -0.095441    0.110043
H     2.568835    0.951354    0.293788   -0.100155    0.219371    1.407576
H     0.081987   -2.291618   -0.599316   -0.494990    0.010514    0.072811
13
* Frequency(14)  679.7479
C     1.608543    0.423682    0.026693   -0.043157    0.068544    0.060328
C     1.509931   -0.897934    0.046820   -0.099269    0.072397   -0.251607
N     0.215279   -1.562353    0.139333   -0.065893    0.076906   -0.012674
C    -1.013922   -0.751676    0.146665    0.092353    0.000131    0.380263
N    -0.798555    0.558517   -0.067552    0.043143   -0.063829    0.014051
C     0.418177    1.224855   -0.218989   -0.016840   -0.125538   -0.419086
O    -2.067013   -1.312899    0.019158    0.061284    0.047254   -0.125466
O     0.459406    2.436211   -0.159261    0.028594   -0.096309    0.130615
H     2.334308   -1.564248    0.484821   -0.163028    0.147813    0.966867
H     0.265226   -2.113953    1.032363    0.427486    0.129524    0.083663
H    -1.642837    1.133221   -0.115052    0.017600   -0.095441    0.110043
H     2.561019    0.968472    0.403627   -0.100155    0.219371    1.407576
H     0.043362   -2.290798   -0.593635   -0.494990    0.010514    0.072811
13
* Frequency(14)  679.7479
C     1.606545    0.426854    0.029485   -0.043157    0.068544    0.060328
C     1.505337   -0.894584    0.035175   -0.099269    0.072397   -0.251607
N     0.212229   -1.558793    0.138746   -0.065893    0.076906   -0.012674
C    -1.009648   -0.751670    0.164264    0.092353    0.000131    0.380263
N    -0.796558    0.555562   -0.066901    0.043143   -0.063829    0.014051
C     0.417398    1.219045   -0.238385   -0.016840   -0.125538   -0.419086
O    -2.064177   -1.310712    0.013351    0.061284    0.047254   -0.125466
O     0.460729    2.431754   -0.153216    0.028594   -0.096309    0.130615
H     2.326763   -1.557407    0.529569   -0.163028    0.147813    0.966867
H     0.285011   -2.107958    1.036235    0.427486    0.129524    0.083663
H    -1.642023    1.128804   -0.109959    0.017600   -0.095441    0.110043
H     2.556384    0.978625    0.468772   -0.100155    0.219371    1.407576
H     0.020452   -2.290311   -0.590265   -0.494990    0.010514    0.072811
13
* Frequency(14)  679.7479
C     1.606135    0.427507    0.030059   -0.043157    0.068544    0.060328
C     1.504392   -0.893895    0.032781   -0.099269    0.072397   -0.251607
N     0.211602   -1.558062    0.138626   -0.065893    0.076906   -0.012674
C    -1.008769   -0.751669    0.167882    0.092353    0.000131    0.380263
N    -0.796148    0.554955   -0.066768    0.043143   -0.063829    0.014051
C     0.417237    1.217850   -0.242373   -0.016840   -0.125538   -0.419086
O    -2.063594   -1.310262    0.012157    0.061284    0.047254   -0.125466
O     0.461001    2.430838   -0.151974    0.028594   -0.096309    0.130615
H     2.325212   -1.556001    0.538768   -0.163028    0.147813    0.966867
H     0.289078   -2.106726    1.037031    0.427486    0.129524    0.083663
H    -1.641855    1.127896   -0.108912    0.017600   -0.095441    0.110043
H     2.555431    0.980712    0.482164   -0.100155    0.219371    1.407576
H     0.015743   -2.290211   -0.589572   -0.494990    0.010514    0.072811
13
* Frequency(14)  679.7479
C     1.607355    0.425568    0.028352   -0.043157    0.068544    0.060328
C     1.507200   -0.895942    0.039897   -0.099269    0.072397   -0.251607
N     0.213466   -1.560237    0.138984   -0.065893    0.076906   -0.012674
C    -1.011381   -0.751673    0.157127    0.092353    0.000131    0.380263
N    -0.797368    0.556761   -0.067165    0.043143   -0.063829    0.014051
C     0.417714    1.221401   -0.230519   -0.016840   -0.125538   -0.419086
O    -2.065327   -1.311599    0.015706    0.061284    0.047254   -0.125466
O     0.460192    2.433562   -0.155668    0.028594   -0.096309    0.130615
H     2.329823   -1.560182    0.511422   -0.163028    0.147813    0.966867
H     0.276987   -2.110389    1.034664    0.427486    0.129524    0.083663
H    -1.642353    1.130595   -0.112024    0.017600   -0.095441    0.110043
H     2.558264    0.974508    0.442353   -0.100155    0.219371    1.407576
H     0.029743   -2.290509   -0.591632   -0.494990    0.010514    0.072811
13
* Frequency(14)  679.7479
C     1.610075    0.421248    0.024551   -0.043157    0.068544    0.060328
C     1.513456   -0.900505    0.055753   -0.099269    0.072397   -0.251607
N     0.217618   -1.565083    0.139783   -0.065893    0.076906   -0.012674
C    -1.017201   -0.751681    0.133163    0.092353    0.000131    0.380263
N    -0.800087    0.560783   -0.068051    0.043143   -0.063829    0.014051
C     0.418775    1.229312   -0.204110   -0.016840   -0.125538   -0.419086
O    -2.069189   -1.314577    0.023612    0.061284    0.047254   -0.125466
O     0.458390    2.439631   -0.163899    0.028594   -0.096309    0.130615
H     2.340097   -1.569496    0.450492   -0.163028    0.147813    0.966867
H     0.250048   -2.118552    1.029392    0.427486    0.129524    0.083663
H    -1.643462    1.136610   -0.118959    0.017600   -0.095441    0.110043
H     2.564575    0.960683    0.353651   -0.100155    0.219371    1.407576
H     0.060936   -2.291171   -0.596220   -0.494990    0.010514    0.072811
13
* Frequency(14)  679.7479
C     1.613999    0.415016    0.019066   -0.043157    0.068544    0.060328
C     1.522481   -0.907087    0.078630   -0.099269    0.072397   -0.251607
N     0.223609   -1.572076    0.140935   -0.065893    0.076906   -0.012674
C    -1.025598   -0.751693    0.098589    0.092353    0.000131    0.380263
N    -0.804010    0.566586   -0.069328    0.043143   -0.063829    0.014051
C     0.420306    1.240726   -0.166006   -0.016840   -0.125538   -0.419086
O    -2.074761   -1.318873    0.035020    0.061284    0.047254   -0.125466
O     0.455791    2.448387   -0.175775    0.028594   -0.096309    0.130615
H     2.354920   -1.582936    0.362583   -0.163028    0.147813    0.966867
H     0.211180   -2.130328    1.021785    0.427486    0.129524    0.083663
H    -1.645062    1.145287   -0.128964    0.017600   -0.095441    0.110043
H     2.573682    0.940738    0.225672   -0.100155    0.219371    1.407576
H     0.105941   -2.292127   -0.602840   -0.494990    0.010514    0.072811
13
* Frequency(14)  679.7479
C     1.618702    0.407547    0.012491   -0.043157    0.068544    0.060328
C     1.533299   -0.914977    0.106048   -0.099269    0.072397   -0.251607
N     0.230790   -1.580456    0.142316   -0.065893    0.076906   -0.012674
C    -1.035662   -0.751707    0.057151    0.092353    0.000131    0.380263
N    -0.808711    0.573542   -0.070859    0.043143   -0.063829    0.014051
C     0.422141    1.254406   -0.120336   -0.016840   -0.125538   -0.419086
O    -2.081439   -1.324023    0.048692    0.061284    0.047254   -0.125466
O     0.452675    2.458882   -0.190008    0.028594   -0.096309    0.130615
H     2.372685   -1.599044    0.257220   -0.163028    0.147813    0.966867
H     0.164596   -2.144443    1.012668    0.427486    0.129524    0.083663
H    -1.646980    1.155688   -0.140956    0.017600   -0.095441    0.110043
H     2.584596    0.916832    0.072283   -0.100155    0.219371    1.407576
H     0.159882   -2.293273   -0.610774   -0.494990    0.010514    0.072811
13
* Frequency(14)  679.7479
C     1.623674    0.399649    0.005541   -0.043157    0.068544    0.060328
C     1.544737   -0.923318    0.135037   -0.099269    0.072397   -0.251607
N     0.238382   -1.589317    0.143776   -0.065893    0.076906   -0.012674
C    -1.046302   -0.751722    0.013338    0.092353    0.000131    0.380263
N    -0.813682    0.580896   -0.072478    0.043143   -0.063829    0.014051
C     0.424081    1.268870   -0.072051   -0.016840   -0.125538   -0.419086
O    -2.088500   -1.329467    0.063148    0.061284    0.047254   -0.125466
O     0.449380    2.469979   -0.205057    0.028594   -0.096309    0.130615
H     2.391469   -1.616074    0.145821   -0.163028    0.147813    0.966867
H     0.115342   -2.159366    1.003029    0.427486    0.129524    0.083663
H    -1.649008    1.166684   -0.153635    0.017600   -0.095441    0.110043
H     2.596136    0.891557   -0.089892   -0.100155    0.219371    1.407576
H     0.216913   -2.294484   -0.619163   -0.494990    0.010514    0.072811
13
* Frequency(14)  679.7479
C     1.628377    0.392180   -0.001033   -0.043157    0.068544    0.060328
C     1.555554   -0.931207    0.162456   -0.099269    0.072397   -0.251607
N     0.245562   -1.597698    0.145157   -0.065893    0.076906   -0.012674
C    -1.056366   -0.751736   -0.028100    0.092353    0.000131    0.380263
N    -0.818383    0.587852   -0.074010    0.043143   -0.063829    0.014051
C     0.425916    1.282550   -0.026381   -0.016840   -0.125538   -0.419086
O    -2.095179   -1.334617    0.076821    0.061284    0.047254   -0.125466
O     0.446264    2.480474   -0.219291    0.028594   -0.096309    0.130615
H     2.409234   -1.632182    0.040458   -0.163028    0.147813    0.966867
H     0.068758   -2.173481    0.993912    0.427486    0.129524    0.083663
H    -1.650926    1.177085   -0.165627    0.017600   -0.095441    0.110043
H     2.607050    0.867652   -0.243281   -0.100155    0.219371    1.407576
H     0.270854   -2.295630   -0.627098   -0.494990    0.010514    0.072811
13
* Frequency(14)  679.7479
C     1.632301    0.385948   -0.006519   -0.043157    0.068544    0.060328
C     1.564580   -0.937790    0.185332   -0.099269    0.072397   -0.251607
N     0.251554   -1.604690    0.146310   -0.065893    0.076906   -0.012674
C    -1.064763   -0.751748   -0.062674    0.092353    0.000131    0.380263
N    -0.822306    0.593655   -0.075287    0.043143   -0.063829    0.014051
C     0.427447    1.293965    0.011723   -0.016840   -0.125538   -0.419086
O    -2.100751   -1.338913    0.088228    0.061284    0.047254   -0.125466
O     0.443664    2.489230   -0.231167    0.028594   -0.096309    0.130615
H     2.424057   -1.645621   -0.047451   -0.163028    0.147813    0.966867
H     0.029890   -2.185257    0.986305    0.427486    0.129524    0.083663
H    -1.652526    1.185763   -0.175632    0.017600   -0.095441    0.110043
H     2.616156    0.847706   -0.371260   -0.100155    0.219371    1.407576
H     0.315859   -2.296586   -0.633718   -0.494990    0.010514    0.072811
13
* Frequency(14)  679.7479
C     1.635021    0.381628   -0.010320   -0.043157    0.068544    0.060328
C     1.570836   -0.942352    0.201188   -0.099269    0.072397   -0.251607
N     0.255706   -1.609537    0.147108   -0.065893    0.076906   -0.012674
C    -1.070583   -0.751757   -0.086638    0.092353    0.000131    0.380263
N    -0.825025    0.597678   -0.076173    0.043143   -0.063829    0.014051
C     0.428509    1.301876    0.038132   -0.016840   -0.125538   -0.419086
O    -2.104613   -1.341891    0.096135    0.061284    0.047254   -0.125466
O     0.441863    2.495300   -0.239398    0.028594   -0.096309    0.130615
H     2.434331   -1.654936   -0.108380   -0.163028    0.147813    0.966867
H     0.002951   -2.193420    0.981033    0.427486    0.129524    0.083663
H    -1.653635    1.191777   -0.182567    0.017600   -0.095441    0.110043
H     2.622468    0.833882   -0.459962   -0.100155    0.219371    1.407576
H     0.347052   -2.297248   -0.638306   -0.494990    0.010514    0.072811
13
* Frequency(14)  679.7479
C     1.636242    0.379690   -0.012027   -0.043157    0.068544    0.060328
C     1.573643   -0.944400    0.208304   -0.099269    0.072397   -0.251607
N     0.257570   -1.611712    0.147467   -0.065893    0.076906   -0.012674
C    -1.073195   -0.751760   -0.097393    0.092353    0.000131    0.380263
N    -0.826245    0.599483   -0.076570    0.043143   -0.063829    0.014051
C     0.428985    1.305426    0.049986   -0.016840   -0.125538   -0.419086
O    -2.106346   -1.343227    0.099684    0.061284    0.047254   -0.125466
O     0.441054    2.498024   -0.243092    0.028594   -0.096309    0.130615
H     2.438942   -1.659117   -0.135727   -0.163028    0.147813    0.966867
H    -0.009140   -2.197083    0.978667    0.427486    0.129524    0.083663
H    -1.654133    1.194476   -0.185679    0.017600   -0.095441    0.110043
H     2.625300    0.827677   -0.499774   -0.100155    0.219371    1.407576
H     0.361052   -2.297546   -0.640365   -0.494990    0.010514    0.072811
13
* Frequency(14)  679.7479
C     1.635831    0.380342   -0.011453   -0.043157    0.068544    0.060328
C     1.572699   -0.943711    0.205911   -0.099269    0.072397   -0.251607
N     0.256943   -1.610980    0.147346   -0.065893    0.076906   -0.012674
C    -1.072316   -0.751759   -0.093775    0.092353    0.000131    0.380263
N    -0.825834    0.598876   -0.076436    0.043143   -0.063829    0.014051
C     0.428825    1.304232    0.045998   -0.016840   -0.125538   -0.419086
O    -2.105763   -1.342778    0.098490    0.061284    0.047254   -0.125466
O     0.441326    2.497107   -0.241849    0.028594   -0.096309    0.130615
H     2.437391   -1.657710   -0.126528   -0.163028    0.147813    0.966867
H    -0.005073   -2.195851    0.979463    0.427486    0.129524    0.083663
H    -1.653966    1.193568   -0.184632    0.017600   -0.095441    0.110043
H     2.624347    0.829765   -0.486381   -0.100155    0.219371    1.407576
H     0.356343   -2.297446   -0.639673   -0.494990    0.010514    0.072811
13
* Frequency(14)  679.7479
C     1.633834    0.383514   -0.008661   -0.043157    0.068544    0.060328
C     1.568105   -0.940360    0.194266   -0.099269    0.072397   -0.251607
N     0.253893   -1.607421    0.146760   -0.065893    0.076906   -0.012674
C    -1.068042   -0.751753   -0.076176    0.092353    0.000131    0.380263
N    -0.823838    0.595921   -0.075786    0.043143   -0.063829    0.014051
C     0.428045    1.298422    0.026602   -0.016840   -0.125538   -0.419086
O    -2.102926   -1.340591    0.092683    0.061284    0.047254   -0.125466
O     0.442649    2.492650   -0.235804    0.028594   -0.096309    0.130615
H     2.429846   -1.650869   -0.081779   -0.163028    0.147813    0.966867
H     0.014712   -2.189856    0.983335    0.427486    0.129524    0.083663
H    -1.653151    1.189151   -0.179539    0.017600   -0.095441    0.110043
H     2.619712    0.839917   -0.421236   -0.100155    0.219371    1.407576
H     0.333434   -2.296959   -0.636303   -0.494990    0.010514    0.072811
13
* Frequency(14)  679.7479
C     1.630466    0.388863   -0.003953   -0.043157    0.068544    0.060328
C     1.560358   -0.934711    0.174632   -0.099269    0.072397   -0.251607
N     0.248751   -1.601420    0.145771   -0.065893    0.076906   -0.012674
C    -1.060835   -0.751743   -0.046502    0.092353    0.000131    0.380263
N    -0.820471    0.590941   -0.074690    0.043143   -0.063829    0.014051
C     0.426731    1.288626   -0.006101   -0.016840   -0.125538   -0.419086
O    -2.098144   -1.336903    0.082892    0.061284    0.047254   -0.125466
O     0.444881    2.485135   -0.225612    0.028594   -0.096309    0.130615
H     2.417124   -1.639335   -0.006331   -0.163028    0.147813    0.966867
H     0.048070   -2.179749    0.989863    0.427486    0.129524    0.083663
H    -1.651778    1.181704   -0.170952    0.017600   -0.095441    0.110043
H     2.611897    0.857036   -0.311398   -0.100155    0.219371    1.407576
H     0.294808   -2.296139   -0.630621   -0.494990    0.010514    0.072811
13
* Frequency(14)  679.7479
C     1.626093    0.395809    0.002160   -0.043157    0.068544    0.060328
C     1.550299   -0.927375    0.149137   -0.099269    0.072397   -0.251607
N     0.242074   -1.593627    0.144486   -0.065893    0.076906   -0.012674
C    -1.051477   -0.751729   -0.007970    0.092353    0.000131    0.380263
N    -0.816099    0.584473   -0.073266    0.043143   -0.063829    0.014051
C     0.425025    1.275905   -0.048567   -0.016840   -0.125538   -0.419086
O    -2.091934   -1.332115    0.070179    0.061284    0.047254   -0.125466
O     0.447778    2.475376   -0.212377    0.028594   -0.096309    0.130615
H     2.400604   -1.624357    0.091641   -0.163028    0.147813    0.966867
H     0.091387   -2.166624    0.998341    0.427486    0.129524    0.083663
H    -1.649994    1.172033   -0.159801    0.017600   -0.095441    0.110043
H     2.601748    0.879264   -0.168768   -0.100155    0.219371    1.407576
H     0.244651   -2.295073   -0.623243   -0.494990    0.010514    0.072811
13
* Frequency(14)  679.7479
C     1.621188    0.403598    0.009016   -0.043157    0.068544    0.060328
C     1.539018   -0.919147    0.120543   -0.099269    0.072397   -0.251607
N     0.234586   -1.584887    0.143046   -0.065893    0.076906   -0.012674
C    -1.040982   -0.751715    0.035244    0.092353    0.000131    0.380263
N    -0.811196    0.577219   -0.071669    0.043143   -0.063829    0.014051
C     0.423111    1.261638   -0.096194   -0.016840   -0.125538   -0.419086
O    -2.084970   -1.326745    0.055920    0.061284    0.047254   -0.125466
O     0.451027    2.464431   -0.197533    0.028594   -0.096309    0.130615
H     2.382077   -1.607559    0.201521   -0.163028    0.147813    0.966867
H     0.139969   -2.151905    1.007849    0.427486    0.129524    0.083663
H    -1.647994    1.161186   -0.147295    0.017600   -0.095441    0.110043
H     2.590366    0.904195   -0.008805   -0.100155    0.219371    1.407576
H     0.188398   -2.293879   -0.614969   -0.494990    0.010514    0.072811
