13
* (null), Energy   -1000.0000000
C     1.621188    0.403598    0.009016    0.023231   -0.042651   -0.548160
C     1.539018   -0.919147    0.120543   -0.011601    0.046750    0.495920
N     0.234586   -1.584887    0.143046   -0.000842   -0.005075   -0.037002
C    -1.040982   -0.751715    0.035244   -0.002260   -0.003936    0.001141
N    -0.811196    0.577219   -0.071669    0.002092    0.004492    0.117243
C     0.423111    1.261638   -0.096194    0.010835   -0.022885   -0.260169
O    -2.084970   -1.326745    0.055920   -0.005752    0.000059   -0.058167
O     0.451027    2.464431   -0.197533   -0.011757    0.017037    0.209153
H     2.382077   -1.607559    0.201521   -0.034534    0.108254    1.260360
H     0.139969   -2.151905    1.007849   -0.250553   -0.543591   -0.427782
H    -1.647994    1.161186   -0.147295   -0.004936    0.042848    0.491722
H     2.590366    0.904195   -0.008805    0.026478   -0.051946   -0.629456
H     0.188398   -2.293879   -0.614969    0.283327    0.451917   -0.497339
13
* Frequency(8)  311.4111
C     1.623828    0.398751   -0.053280    0.023231   -0.042651   -0.548160
C     1.537699   -0.913834    0.176901   -0.011601    0.046750    0.495920
N     0.234490   -1.585464    0.138841   -0.000842   -0.005075   -0.037002
C    -1.041239   -0.752162    0.035374   -0.002260   -0.003936    0.001141
N    -0.810959    0.577729   -0.058345    0.002092    0.004492    0.117243
C     0.424342    1.259037   -0.125760    0.010835   -0.022885   -0.260169
O    -2.085623   -1.326738    0.049310   -0.005752    0.000059   -0.058167
O     0.449691    2.466367   -0.173764   -0.011757    0.017037    0.209153
H     2.378152   -1.595256    0.344754   -0.034534    0.108254    1.260360
H     0.111495   -2.213681    0.959233   -0.250553   -0.543591   -0.427782
H    -1.648555    1.166056   -0.091414   -0.004936    0.042848    0.491722
H     2.593375    0.898291   -0.080339    0.026478   -0.051946   -0.629456
H     0.220596   -2.242521   -0.671489    0.283327    0.451917   -0.497339
13
* Frequency(8)  311.4111
C     1.626182    0.394429   -0.108824    0.023231   -0.042651   -0.548160
C     1.536524   -0.909097    0.227153   -0.011601    0.046750    0.495920
N     0.234405   -1.585978    0.135092   -0.000842   -0.005075   -0.037002
C    -1.041468   -0.752561    0.035490   -0.002260   -0.003936    0.001141
N    -0.810747    0.578185   -0.046465    0.002092    0.004492    0.117243
C     0.425440    1.256718   -0.152123    0.010835   -0.022885   -0.260169
O    -2.086206   -1.326732    0.043416   -0.005752    0.000059   -0.058167
O     0.448500    2.468093   -0.152570   -0.011757    0.017037    0.209153
H     2.374653   -1.584287    0.472466   -0.034534    0.108254    1.260360
H     0.086106   -2.268763    0.915886   -0.250553   -0.543591   -0.427782
H    -1.649055    1.170397   -0.041588   -0.004936    0.042848    0.491722
H     2.596058    0.893028   -0.144122    0.026478   -0.051946   -0.629456
H     0.249306   -2.196728   -0.721884    0.283327    0.451917   -0.497339
13
* Frequency(8)  311.4111
C     1.627995    0.391101   -0.151599    0.023231   -0.042651   -0.548160
C     1.535619   -0.905449    0.265851   -0.011601    0.046750    0.495920
N     0.234339   -1.586374    0.132204   -0.000842   -0.005075   -0.037002
C    -1.041644   -0.752868    0.035579   -0.002260   -0.003936    0.001141
N    -0.810583    0.578535   -0.037316    0.002092    0.004492    0.117243
C     0.426286    1.254933   -0.172425    0.010835   -0.022885   -0.260169
O    -2.086655   -1.326727    0.038877   -0.005752    0.000059   -0.058167
O     0.447582    2.469423   -0.136249   -0.011757    0.017037    0.209153
H     2.371958   -1.575840    0.570816   -0.034534    0.108254    1.260360
H     0.066555   -2.311181    0.882505   -0.250553   -0.543591   -0.427782
H    -1.649440    1.173741   -0.003217   -0.004936    0.042848    0.491722
H     2.598124    0.888974   -0.193240    0.026478   -0.051946   -0.629456
H     0.271415   -2.161463   -0.760693    0.283327    0.451917   -0.497339
13
* Frequency(8)  311.4111
C     1.629070    0.389127   -0.176969    0.023231   -0.042651   -0.548160
C     1.535082   -0.903285    0.288803   -0.011601    0.046750    0.495920
N     0.234300   -1.586609    0.130492   -0.000842   -0.005075   -0.037002
C    -1.041749   -0.753050    0.035631   -0.002260   -0.003936    0.001141
N    -0.810487    0.578743   -0.031889    0.002092    0.004492    0.117243
C     0.426787    1.253873   -0.184466    0.010835   -0.022885   -0.260169
O    -2.086921   -1.326725    0.036185   -0.005752    0.000059   -0.058167
O     0.447038    2.470211   -0.126569   -0.011757    0.017037    0.209153
H     2.370360   -1.570829    0.629148   -0.034534    0.108254    1.260360
H     0.054959   -2.336340    0.862706   -0.250553   -0.543591   -0.427782
H    -1.649669    1.175724    0.019541   -0.004936    0.042848    0.491722
H     2.599349    0.886570   -0.222373    0.026478   -0.051946   -0.629456
H     0.284528   -2.140548   -0.783711    0.283327    0.451917   -0.497339
13
* Frequency(8)  311.4111
C     1.629291    0.388721   -0.182185    0.023231   -0.042651   -0.548160
C     1.534971   -0.902840    0.293522   -0.011601    0.046750    0.495920
N     0.234292   -1.586657    0.130140   -0.000842   -0.005075   -0.037002
C    -1.041770   -0.753087    0.035642   -0.002260   -0.003936    0.001141
N    -0.810467    0.578786   -0.030774    0.002092    0.004492    0.117243
C     0.426890    1.253656   -0.186942    0.010835   -0.022885   -0.260169
O    -2.086976   -1.326724    0.035631   -0.005752    0.000059   -0.058167
O     0.446926    2.470373   -0.124579   -0.011757    0.017037    0.209153
H     2.370031   -1.569799    0.641140   -0.034534    0.108254    1.260360
H     0.052575   -2.341512    0.858636   -0.250553   -0.543591   -0.427782
H    -1.649716    1.176132    0.024219   -0.004936    0.042848    0.491722
H     2.599601    0.886076   -0.228362    0.026478   -0.051946   -0.629456
H     0.287224   -2.136248   -0.788443    0.283327    0.451917   -0.497339
13
* Frequency(8)  311.4111
C     1.628634    0.389928   -0.166681    0.023231   -0.042651   -0.548160
C     1.535299   -0.904163    0.279495   -0.011601    0.046750    0.495920
N     0.234316   -1.586513    0.131186   -0.000842   -0.005075   -0.037002
C    -1.041706   -0.752976    0.035610   -0.002260   -0.003936    0.001141
N    -0.810526    0.578659   -0.034090    0.002092    0.004492    0.117243
C     0.426584    1.254303   -0.179583    0.010835   -0.022885   -0.260169
O    -2.086814   -1.326726    0.037277   -0.005752    0.000059   -0.058167
O     0.447259    2.469891   -0.130495   -0.011757    0.017037    0.209153
H     2.371008   -1.572861    0.605492   -0.034534    0.108254    1.260360
H     0.059662   -2.326137    0.870736   -0.250553   -0.543591   -0.427782
H    -1.649576    1.174920    0.010311   -0.004936    0.042848    0.491722
H     2.598852    0.887545   -0.210558    0.026478   -0.051946   -0.629456
H     0.279210   -2.149030   -0.774376    0.283327    0.451917   -0.497339
13
* Frequency(8)  311.4111
C     1.627170    0.392615   -0.132137    0.023231   -0.042651   -0.548160
C     1.536031   -0.907109    0.248244   -0.011601    0.046750    0.495920
N     0.234369   -1.586194    0.133518   -0.000842   -0.005075   -0.037002
C    -1.041564   -0.752728    0.035538   -0.002260   -0.003936    0.001141
N    -0.810658    0.578376   -0.041478    0.002092    0.004492    0.117243
C     0.425901    1.255745   -0.163188    0.010835   -0.022885   -0.260169
O    -2.086451   -1.326730    0.040942   -0.005752    0.000059   -0.058167
O     0.448000    2.468818   -0.143675   -0.011757    0.017037    0.209153
H     2.373184   -1.579683    0.526068   -0.034534    0.108254    1.260360
H     0.075451   -2.291881    0.897693   -0.250553   -0.543591   -0.427782
H    -1.649265    1.172220   -0.020675   -0.004936    0.042848    0.491722
H     2.597184    0.890818   -0.170892    0.026478   -0.051946   -0.629456
H     0.261355   -2.177509   -0.743035    0.283327    0.451917   -0.497339
13
* Frequency(8)  311.4111
C     1.625058    0.396493   -0.082297    0.023231   -0.042651   -0.548160
C     1.537085   -0.911359    0.203154   -0.011601    0.046750    0.495920
N     0.234446   -1.585732    0.136882   -0.000842   -0.005075   -0.037002
C    -1.041358   -0.752370    0.035434   -0.002260   -0.003936    0.001141
N    -0.810848    0.577967   -0.052138    0.002092    0.004492    0.117243
C     0.424916    1.257826   -0.139533    0.010835   -0.022885   -0.260169
O    -2.085928   -1.326735    0.046231   -0.005752    0.000059   -0.058167
O     0.449069    2.467269   -0.162692   -0.011757    0.017037    0.209153
H     2.376324   -1.589526    0.411473   -0.034534    0.108254    1.260360
H     0.098231   -2.242457    0.936588   -0.250553   -0.543591   -0.427782
H    -1.648816    1.168324   -0.065384   -0.004936    0.042848    0.491722
H     2.594776    0.895541   -0.113660    0.026478   -0.051946   -0.629456
H     0.235595   -2.218598   -0.697816    0.283327    0.451917   -0.497339
13
* Frequency(8)  311.4111
C     1.622526    0.401141   -0.022562    0.023231   -0.042651   -0.548160
C     1.538350   -0.916454    0.149112   -0.011601    0.046750    0.495920
N     0.234537   -1.585179    0.140914   -0.000842   -0.005075   -0.037002
C    -1.041112   -0.751941    0.035310   -0.002260   -0.003936    0.001141
N    -0.811076    0.577478   -0.064915    0.002092    0.004492    0.117243
C     0.423735    1.260320   -0.111181    0.010835   -0.022885   -0.260169
O    -2.085301   -1.326741    0.052569   -0.005752    0.000059   -0.058167
O     0.450350    2.465412   -0.185484   -0.011757    0.017037    0.209153
H     2.380088   -1.601322    0.274128   -0.034534    0.108254    1.260360
H     0.125535   -2.183220    0.983205   -0.250553   -0.543591   -0.427782
H    -1.648278    1.163654   -0.118968   -0.004936    0.042848    0.491722
H     2.591891    0.901202   -0.045066    0.026478   -0.051946   -0.629456
H     0.204720   -2.267845   -0.643620    0.283327    0.451917   -0.497339
13
* Frequency(8)  311.4111
C     1.619850    0.406055    0.040594    0.023231   -0.042651   -0.548160
C     1.539686   -0.921840    0.091974   -0.011601    0.046750    0.495920
N     0.234634   -1.584594    0.145178   -0.000842   -0.005075   -0.037002
C    -1.040852   -0.751488    0.035179   -0.002260   -0.003936    0.001141
N    -0.811317    0.576960   -0.078423    0.002092    0.004492    0.117243
C     0.422487    1.262957   -0.081206    0.010835   -0.022885   -0.260169
O    -2.084638   -1.326748    0.059271   -0.005752    0.000059   -0.058167
O     0.451705    2.463449   -0.209582   -0.011757    0.017037    0.209153
H     2.384066   -1.613795    0.128914   -0.034534    0.108254    1.260360
H     0.154403   -2.120589    1.032492   -0.250553   -0.543591   -0.427782
H    -1.647710    1.158718   -0.175623   -0.004936    0.042848    0.491722
H     2.588840    0.907187    0.027457    0.026478   -0.051946   -0.629456
H     0.172076   -2.319913   -0.586318    0.283327    0.451917   -0.497339
13
* Frequency(8)  311.4111
C     1.617318    0.410703    0.100329    0.023231   -0.042651   -0.548160
C     1.540950   -0.926935    0.037932   -0.011601    0.046750    0.495920
N     0.234726   -1.584041    0.149210   -0.000842   -0.005075   -0.037002
C    -1.040605   -0.751059    0.035054   -0.002260   -0.003936    0.001141
N    -0.811545    0.576471   -0.091199    0.002092    0.004492    0.117243
C     0.421306    1.265450   -0.052854    0.010835   -0.022885   -0.260169
O    -2.084012   -1.326755    0.065610   -0.005752    0.000059   -0.058167
O     0.452986    2.461593   -0.232374   -0.011757    0.017037    0.209153
H     2.387830   -1.625592   -0.008432   -0.034534    0.108254    1.260360
H     0.181706   -2.061352    1.079109   -0.250553   -0.543591   -0.427782
H    -1.647172    1.154048   -0.229207   -0.004936    0.042848    0.491722
H     2.585955    0.912848    0.096051    0.026478   -0.051946   -0.629456
H     0.141201   -2.369160   -0.532121    0.283327    0.451917   -0.497339
13
* Frequency(8)  311.4111
C     1.615206    0.414581    0.150169    0.023231   -0.042651   -0.548160
C     1.542005   -0.931186   -0.007158   -0.011601    0.046750    0.495920
N     0.234803   -1.583580    0.152574   -0.000842   -0.005075   -0.037002
C    -1.040400   -0.750701    0.034951   -0.002260   -0.003936    0.001141
N    -0.811735    0.576062   -0.101859    0.002092    0.004492    0.117243
C     0.420321    1.267531   -0.029199    0.010835   -0.022885   -0.260169
O    -2.083488   -1.326760    0.070899   -0.005752    0.000059   -0.058167
O     0.454055    2.460043   -0.251391   -0.011757    0.017037    0.209153
H     2.390970   -1.635434   -0.123026   -0.034534    0.108254    1.260360
H     0.204487   -2.011928    1.118004   -0.250553   -0.543591   -0.427782
H    -1.646723    1.150153   -0.273915   -0.004936    0.042848    0.491722
H     2.583548    0.917571    0.153282    0.026478   -0.051946   -0.629456
H     0.115440   -2.410249   -0.486902    0.283327    0.451917   -0.497339
13
* Frequency(8)  311.4111
C     1.613742    0.417269    0.184713    0.023231   -0.042651   -0.548160
C     1.542736   -0.934132   -0.038410   -0.011601    0.046750    0.495920
N     0.234856   -1.583260    0.154906   -0.000842   -0.005075   -0.037002
C    -1.040258   -0.750453    0.034879   -0.002260   -0.003936    0.001141
N    -0.811867    0.575779   -0.109248    0.002092    0.004492    0.117243
C     0.419638    1.268973   -0.012804    0.010835   -0.022885   -0.260169
O    -2.083126   -1.326764    0.074564   -0.005752    0.000059   -0.058167
O     0.454796    2.458970   -0.264571   -0.011757    0.017037    0.209153
H     2.393146   -1.642256   -0.202451   -0.034534    0.108254    1.260360
H     0.220276   -1.977672    1.144962   -0.250553   -0.543591   -0.427782
H    -1.646412    1.147452   -0.304902   -0.004936    0.042848    0.491722
H     2.581879    0.920845    0.192949    0.026478   -0.051946   -0.629456
H     0.097585   -2.438727   -0.455561    0.283327    0.451917   -0.497339
13
* Frequency(8)  311.4111
C     1.613085    0.418475    0.200217    0.023231   -0.042651   -0.548160
C     1.543064   -0.935454   -0.052436   -0.011601    0.046750    0.495920
N     0.234879   -1.583117    0.155953   -0.000842   -0.005075   -0.037002
C    -1.040194   -0.750342    0.034847   -0.002260   -0.003936    0.001141
N    -0.811926    0.575652   -0.112564    0.002092    0.004492    0.117243
C     0.419332    1.269621   -0.005445    0.010835   -0.022885   -0.260169
O    -2.082963   -1.326766    0.076209   -0.005752    0.000059   -0.058167
O     0.455128    2.458488   -0.270487   -0.011757    0.017037    0.209153
H     2.394123   -1.645318   -0.238099   -0.034534    0.108254    1.260360
H     0.227363   -1.962297    1.157061   -0.250553   -0.543591   -0.427782
H    -1.646272    1.146241   -0.318810   -0.004936    0.042848    0.491722
H     2.581130    0.922314    0.210752    0.026478   -0.051946   -0.629456
H     0.089572   -2.451509   -0.441495    0.283327    0.451917   -0.497339
13
* Frequency(8)  311.4111
C     1.613306    0.418069    0.195001    0.023231   -0.042651   -0.548160
C     1.542954   -0.935009   -0.047718   -0.011601    0.046750    0.495920
N     0.234871   -1.583165    0.155601   -0.000842   -0.005075   -0.037002
C    -1.040215   -0.750379    0.034857   -0.002260   -0.003936    0.001141
N    -0.811906    0.575695   -0.111448    0.002092    0.004492    0.117243
C     0.419435    1.269403   -0.007921    0.010835   -0.022885   -0.260169
O    -2.083018   -1.326765    0.075656   -0.005752    0.000059   -0.058167
O     0.455017    2.458650   -0.268497   -0.011757    0.017037    0.209153
H     2.393794   -1.644288   -0.226107   -0.034534    0.108254    1.260360
H     0.224979   -1.967469    1.152991   -0.250553   -0.543591   -0.427782
H    -1.646319    1.146648   -0.314132   -0.004936    0.042848    0.491722
H     2.581382    0.921820    0.204763    0.026478   -0.051946   -0.629456
H     0.092267   -2.447209   -0.446226    0.283327    0.451917   -0.497339
13
* Frequency(8)  311.4111
C     1.614381    0.416095    0.169631    0.023231   -0.042651   -0.548160
C     1.542417   -0.932846   -0.024766   -0.011601    0.046750    0.495920
N     0.234832   -1.583400    0.153888   -0.000842   -0.005075   -0.037002
C    -1.040320   -0.750561    0.034910   -0.002260   -0.003936    0.001141
N    -0.811809    0.575903   -0.106022    0.002092    0.004492    0.117243
C     0.419936    1.268344   -0.019962    0.010835   -0.022885   -0.260169
O    -2.083284   -1.326762    0.072964   -0.005752    0.000059   -0.058167
O     0.454472    2.459439   -0.258817   -0.011757    0.017037    0.209153
H     2.392196   -1.639278   -0.167775   -0.034534    0.108254    1.260360
H     0.213383   -1.992628    1.133192   -0.250553   -0.543591   -0.427782
H    -1.646548    1.148631   -0.291374   -0.004936    0.042848    0.491722
H     2.582608    0.919415    0.175631    0.026478   -0.051946   -0.629456
H     0.105380   -2.426294   -0.469244    0.283327    0.451917   -0.497339
13
* Frequency(8)  311.4111
C     1.616194    0.412767    0.126856    0.023231   -0.042651   -0.548160
C     1.541512   -0.929197    0.013933   -0.011601    0.046750    0.495920
N     0.234767   -1.583796    0.151001   -0.000842   -0.005075   -0.037002
C    -1.040496   -0.750869    0.034999   -0.002260   -0.003936    0.001141
N    -0.811646    0.576253   -0.096873    0.002092    0.004492    0.117243
C     0.420782    1.266558   -0.040264    0.010835   -0.022885   -0.260169
O    -2.083733   -1.326758    0.068425   -0.005752    0.000059   -0.058167
O     0.453555    2.460768   -0.242495   -0.011757    0.017037    0.209153
H     2.389501   -1.630831   -0.069424   -0.034534    0.108254    1.260360
H     0.193831   -2.035046    1.099811   -0.250553   -0.543591   -0.427782
H    -1.646933    1.151975   -0.253003   -0.004936    0.042848    0.491722
H     2.584674    0.915362    0.126512    0.026478   -0.051946   -0.629456
H     0.127489   -2.391029   -0.508054    0.283327    0.451917   -0.497339
13
* Frequency(8)  311.4111
C     1.618548    0.408445    0.071312    0.023231   -0.042651   -0.548160
C     1.540336   -0.924460    0.064184   -0.011601    0.046750    0.495920
N     0.234682   -1.584310    0.147251   -0.000842   -0.005075   -0.037002
C    -1.040725   -0.751267    0.035115   -0.002260   -0.003936    0.001141
N    -0.811434    0.576709   -0.084993    0.002092    0.004492    0.117243
C     0.421880    1.264239   -0.066627    0.010835   -0.022885   -0.260169
O    -2.084316   -1.326752    0.062531   -0.005752    0.000059   -0.058167
O     0.452364    2.462494   -0.221302   -0.011757    0.017037    0.209153
H     2.386002   -1.619861    0.058287   -0.034534    0.108254    1.260360
H     0.168443   -2.090128    1.056464   -0.250553   -0.543591   -0.427782
H    -1.647433    1.156317   -0.203177   -0.004936    0.042848    0.491722
H     2.587357    0.910098    0.062730    0.026478   -0.051946   -0.629456
H     0.156199   -2.345237   -0.558449    0.283327    0.451917   -0.497339
13
* Frequency(8)  311.4111
C     1.621188    0.403598    0.009016    0.023231   -0.042651   -0.548160
C     1.539018   -0.919147    0.120543   -0.011601    0.046750    0.495920
N     0.234586   -1.584887    0.143046   -0.000842   -0.005075   -0.037002
C    -1.040982   -0.751715    0.035244   -0.002260   -0.003936    0.001141
N    -0.811196    0.577219   -0.071669    0.002092    0.004492    0.117243
C     0.423111    1.261638   -0.096194    0.010835   -0.022885   -0.260169
O    -2.084970   -1.326745    0.055920   -0.005752    0.000059   -0.058167
O     0.451027    2.464431   -0.197533   -0.011757    0.017037    0.209153
H     2.382077   -1.607559    0.201521   -0.034534    0.108254    1.260360
H     0.139969   -2.151905    1.007849   -0.250553   -0.543591   -0.427782
H    -1.647994    1.161186   -0.147295   -0.004936    0.042848    0.491722
H     2.590366    0.904195   -0.008805    0.026478   -0.051946   -0.629456
H     0.188398   -2.293879   -0.614969    0.283327    0.451917   -0.497339
