13
* (null), Energy   -1000.0000000
C     1.621188    0.403598    0.009016   -0.085873    0.367523   -0.032828
C     1.539018   -0.919147    0.120543   -0.030238   -0.206329    0.017008
N     0.234586   -1.584887    0.143046   -0.000021    0.025974   -0.002276
C    -1.040982   -0.751715    0.035244   -0.202234   -0.151252    0.008187
N    -0.811196    0.577219   -0.071669    0.024301    0.164817   -0.013880
C     0.423111    1.261638   -0.096194    0.119681   -1.357655    0.117253
O    -2.084970   -1.326745    0.055920    0.131866    0.068364   -0.002581
O     0.451027    2.464431   -0.197533    0.001752    0.836783   -0.070920
H     2.382077   -1.607559    0.201521    0.175810   -0.035588    0.007698
H     0.139969   -2.151905    1.007849    0.000984    0.080966    0.053251
H    -1.647994    1.161186   -0.147295   -0.586277   -0.680269    0.051068
H     2.590366    0.904195   -0.008805    0.316386   -0.398416    0.041872
H     0.188398   -2.293879   -0.614969    0.002135    0.074509   -0.068982
13
* Frequency(32) 1822.6957
C     1.611429    0.445365    0.005285   -0.085873    0.367523   -0.032828
C     1.535582   -0.942595    0.122476   -0.030238   -0.206329    0.017008
N     0.234583   -1.581935    0.142788   -0.000021    0.025974   -0.002276
C    -1.063965   -0.768904    0.036175   -0.202234   -0.151252    0.008187
N    -0.808435    0.595950   -0.073246    0.024301    0.164817   -0.013880
C     0.436712    1.107348   -0.082868    0.119681   -1.357655    0.117253
O    -2.069984   -1.318976    0.055627    0.131866    0.068364   -0.002581
O     0.451227    2.559527   -0.205593    0.001752    0.836783   -0.070920
H     2.402057   -1.611603    0.202395    0.175810   -0.035588    0.007698
H     0.140081   -2.142703    1.013900    0.000984    0.080966    0.053251
H    -1.714621    1.083877   -0.141492   -0.586277   -0.680269    0.051068
H     2.626321    0.858917   -0.004046    0.316386   -0.398416    0.041872
H     0.188640   -2.285411   -0.622808    0.002135    0.074509   -0.068982
13
* Frequency(32) 1822.6957
C     1.602728    0.482606    0.001959   -0.085873    0.367523   -0.032828
C     1.532518   -0.963503    0.124199   -0.030238   -0.206329    0.017008
N     0.234581   -1.579303    0.142557   -0.000021    0.025974   -0.002276
C    -1.084457   -0.784230    0.037004   -0.202234   -0.151252    0.008187
N    -0.805972    0.612651   -0.074653    0.024301    0.164817   -0.013880
C     0.448840    0.969777   -0.070987    0.119681   -1.357655    0.117253
O    -2.056622   -1.312048    0.055365    0.131866    0.068364   -0.002581
O     0.451404    2.644318   -0.212779    0.001752    0.836783   -0.070920
H     2.419872   -1.615209    0.203176    0.175810   -0.035588    0.007698
H     0.140180   -2.134499    1.019296    0.000984    0.080966    0.053251
H    -1.774029    1.014946   -0.136317   -0.586277   -0.680269    0.051068
H     2.658381    0.818546    0.000197    0.316386   -0.398416    0.041872
H     0.188857   -2.277861   -0.629798    0.002135    0.074509   -0.068982
13
* Frequency(32) 1822.6957
C     1.596027    0.511285   -0.000603   -0.085873    0.367523   -0.032828
C     1.530158   -0.979603    0.125526   -0.030238   -0.206329    0.017008
N     0.234580   -1.577276    0.142379   -0.000021    0.025974   -0.002276
C    -1.100238   -0.796033    0.037643   -0.202234   -0.151252    0.008187
N    -0.804076    0.625512   -0.075736    0.024301    0.164817   -0.013880
C     0.458179    0.863834   -0.061838    0.119681   -1.357655    0.117253
O    -2.046332   -1.306714    0.055164    0.131866    0.068364   -0.002581
O     0.451541    2.709615   -0.218313    0.001752    0.836783   -0.070920
H     2.433591   -1.617986    0.203776    0.175810   -0.035588    0.007698
H     0.140257   -2.128181    1.023452    0.000984    0.080966    0.053251
H    -1.819778    0.961862   -0.132332   -0.586277   -0.680269    0.051068
H     2.683070    0.787456    0.003464    0.316386   -0.398416    0.041872
H     0.189023   -2.272047   -0.635181    0.002135    0.074509   -0.068982
13
* Frequency(32) 1822.6957
C     1.592052    0.528295   -0.002122   -0.085873    0.367523   -0.032828
C     1.528758   -0.989153    0.126313   -0.030238   -0.206329    0.017008
N     0.234579   -1.576074    0.142274   -0.000021    0.025974   -0.002276
C    -1.109598   -0.803033    0.038022   -0.202234   -0.151252    0.008187
N    -0.802951    0.633140   -0.076378    0.024301    0.164817   -0.013880
C     0.463718    0.800999   -0.056411    0.119681   -1.357655    0.117253
O    -2.040229   -1.303550    0.055045    0.131866    0.068364   -0.002581
O     0.451622    2.748343   -0.221595    0.001752    0.836783   -0.070920
H     2.441727   -1.619633    0.204132    0.175810   -0.035588    0.007698
H     0.140303   -2.124434    1.025916    0.000984    0.080966    0.053251
H    -1.846912    0.930378   -0.129969   -0.586277   -0.680269    0.051068
H     2.697713    0.769016    0.005402    0.316386   -0.398416    0.041872
H     0.189122   -2.268598   -0.638374    0.002135    0.074509   -0.068982
13
* Frequency(32) 1822.6957
C     1.591235    0.531792   -0.002435   -0.085873    0.367523   -0.032828
C     1.528471   -0.991116    0.126475   -0.030238   -0.206329    0.017008
N     0.234578   -1.575827    0.142252   -0.000021    0.025974   -0.002276
C    -1.111522   -0.804472    0.038100   -0.202234   -0.151252    0.008187
N    -0.802720    0.634708   -0.076510    0.024301    0.164817   -0.013880
C     0.464857    0.788082   -0.055295    0.119681   -1.357655    0.117253
O    -2.038974   -1.302899    0.055020    0.131866    0.068364   -0.002581
O     0.451639    2.756304   -0.222270    0.001752    0.836783   -0.070920
H     2.443400   -1.619972    0.204206    0.175810   -0.035588    0.007698
H     0.140312   -2.123663    1.026423    0.000984    0.080966    0.053251
H    -1.852490    0.923905   -0.129483   -0.586277   -0.680269    0.051068
H     2.700723    0.765225    0.005801    0.316386   -0.398416    0.041872
H     0.189142   -2.267890   -0.639030    0.002135    0.074509   -0.068982
13
* Frequency(32) 1822.6957
C     1.593664    0.521397   -0.001506   -0.085873    0.367523   -0.032828
C     1.529326   -0.985280    0.125994   -0.030238   -0.206329    0.017008
N     0.234579   -1.576562    0.142317   -0.000021    0.025974   -0.002276
C    -1.105802   -0.800194    0.037868   -0.202234   -0.151252    0.008187
N    -0.803407    0.630046   -0.076118    0.024301    0.164817   -0.013880
C     0.461471    0.826482   -0.058612    0.119681   -1.357655    0.117253
O    -2.042704   -1.304833    0.055093    0.131866    0.068364   -0.002581
O     0.451589    2.732637   -0.220264    0.001752    0.836783   -0.070920
H     2.438428   -1.618965    0.203988    0.175810   -0.035588    0.007698
H     0.140284   -2.125953    1.024917    0.000984    0.080966    0.053251
H    -1.835908    0.943146   -0.130927   -0.586277   -0.680269    0.051068
H     2.691774    0.776494    0.004616    0.316386   -0.398416    0.041872
H     0.189082   -2.269997   -0.637079    0.002135    0.074509   -0.068982
13
* Frequency(32) 1822.6957
C     1.599076    0.498236    0.000563   -0.085873    0.367523   -0.032828
C     1.531232   -0.972278    0.124922   -0.030238   -0.206329    0.017008
N     0.234580   -1.578199    0.142460   -0.000021    0.025974   -0.002276
C    -1.093058   -0.790662    0.037353   -0.202234   -0.151252    0.008187
N    -0.804939    0.619660   -0.075243    0.024301    0.164817   -0.013880
C     0.453929    0.912038   -0.066001    0.119681   -1.357655    0.117253
O    -2.051014   -1.309141    0.055256    0.131866    0.068364   -0.002581
O     0.451479    2.679905   -0.215795    0.001752    0.836783   -0.070920
H     2.427349   -1.616723    0.203503    0.175810   -0.035588    0.007698
H     0.140222   -2.131056    1.021561    0.000984    0.080966    0.053251
H    -1.798962    0.986015   -0.134145   -0.586277   -0.680269    0.051068
H     2.671836    0.801601    0.001978    0.316386   -0.398416    0.041872
H     0.188948   -2.274692   -0.632732    0.002135    0.074509   -0.068982
13
* Frequency(32) 1822.6957
C     1.606883    0.464821    0.003547   -0.085873    0.367523   -0.032828
C     1.533981   -0.953518    0.123376   -0.030238   -0.206329    0.017008
N     0.234582   -1.580560    0.142667   -0.000021    0.025974   -0.002276
C    -1.074670   -0.776910    0.036608   -0.202234   -0.151252    0.008187
N    -0.807148    0.604675   -0.073981    0.024301    0.164817   -0.013880
C     0.443048    1.035478   -0.076661    0.119681   -1.357655    0.117253
O    -2.063003   -1.315357    0.055490    0.131866    0.068364   -0.002581
O     0.451319    2.603823   -0.209347    0.001752    0.836783   -0.070920
H     2.411364   -1.613487    0.202803    0.175810   -0.035588    0.007698
H     0.140133   -2.138417    1.016719    0.000984    0.080966    0.053251
H    -1.745657    1.047866   -0.138789   -0.586277   -0.680269    0.051068
H     2.643070    0.837826   -0.001829    0.316386   -0.398416    0.041872
H     0.188753   -2.281467   -0.626460    0.002135    0.074509   -0.068982
13
* Frequency(32) 1822.6957
C     1.616241    0.424770    0.007125   -0.085873    0.367523   -0.032828
C     1.537276   -0.931033    0.121523   -0.030238   -0.206329    0.017008
N     0.234585   -1.583391    0.142915   -0.000021    0.025974   -0.002276
C    -1.052632   -0.760428    0.035716   -0.202234   -0.151252    0.008187
N    -0.809796    0.586714   -0.072468    0.024301    0.164817   -0.013880
C     0.430006    1.183426   -0.089439    0.119681   -1.357655    0.117253
O    -2.077373   -1.322807    0.055772    0.131866    0.068364   -0.002581
O     0.451128    2.512636   -0.201618    0.001752    0.836783   -0.070920
H     2.392205   -1.609609    0.201964    0.175810   -0.035588    0.007698
H     0.140026   -2.147240    1.010916    0.000984    0.080966    0.053251
H    -1.681768    1.121997   -0.144354   -0.586277   -0.680269    0.051068
H     2.608592    0.881243   -0.006392    0.316386   -0.398416    0.041872
H     0.188521   -2.289586   -0.618943    0.002135    0.074509   -0.068982
13
* Frequency(32) 1822.6957
C     1.626135    0.382426    0.010907   -0.085873    0.367523   -0.032828
C     1.540760   -0.907261    0.119563   -0.030238   -0.206329    0.017008
N     0.234587   -1.586383    0.143177   -0.000021    0.025974   -0.002276
C    -1.029332   -0.743001    0.034773   -0.202234   -0.151252    0.008187
N    -0.812596    0.567724   -0.070869    0.024301    0.164817   -0.013880
C     0.416216    1.339850   -0.102948    0.119681   -1.357655    0.117253
O    -2.092566   -1.330683    0.056069    0.131866    0.068364   -0.002581
O     0.450926    2.416225   -0.193447    0.001752    0.836783   -0.070920
H     2.371949   -1.605509    0.201077    0.175810   -0.035588    0.007698
H     0.139912   -2.156569    1.004781    0.000984    0.080966    0.053251
H    -1.614220    1.200375   -0.150237   -0.586277   -0.680269    0.051068
H     2.572139    0.927147   -0.011217    0.316386   -0.398416    0.041872
H     0.188275   -2.298171   -0.610995    0.002135    0.074509   -0.068982
13
* Frequency(32) 1822.6957
C     1.635493    0.342376    0.014485   -0.085873    0.367523   -0.032828
C     1.544055   -0.884777    0.117709   -0.030238   -0.206329    0.017008
N     0.234589   -1.589214    0.143425   -0.000021    0.025974   -0.002276
C    -1.007294   -0.726519    0.033881   -0.202234   -0.151252    0.008187
N    -0.815244    0.549763   -0.069357    0.024301    0.164817   -0.013880
C     0.403174    1.487799   -0.115726    0.119681   -1.357655    0.117253
O    -2.106936   -1.338133    0.056350    0.131866    0.068364   -0.002581
O     0.450736    2.325038   -0.185719    0.001752    0.836783   -0.070920
H     2.352790   -1.601631    0.200238    0.175810   -0.035588    0.007698
H     0.139805   -2.165392    0.998978    0.000984    0.080966    0.053251
H    -1.550331    1.274506   -0.155802   -0.586277   -0.680269    0.051068
H     2.537662    0.970564   -0.015780    0.316386   -0.398416    0.041872
H     0.188042   -2.306290   -0.603478    0.002135    0.074509   -0.068982
13
* Frequency(32) 1822.6957
C     1.643301    0.308960    0.017469   -0.085873    0.367523   -0.032828
C     1.546804   -0.866017    0.116163   -0.030238   -0.206329    0.017008
N     0.234591   -1.591575    0.143632   -0.000021    0.025974   -0.002276
C    -0.988906   -0.712767    0.033136   -0.202234   -0.151252    0.008187
N    -0.817454    0.534778   -0.068095    0.024301    0.164817   -0.013880
C     0.392293    1.611239   -0.126387    0.119681   -1.357655    0.117253
O    -2.118926   -1.344349    0.056585    0.131866    0.068364   -0.002581
O     0.450576    2.248956   -0.179271    0.001752    0.836783   -0.070920
H     2.336805   -1.598395    0.199538    0.175810   -0.035588    0.007698
H     0.139716   -2.172754    0.994136    0.000984    0.080966    0.053251
H    -1.497026    1.336358   -0.160446   -0.586277   -0.680269    0.051068
H     2.508895    1.006788   -0.019587    0.316386   -0.398416    0.041872
H     0.187848   -2.313065   -0.597206    0.002135    0.074509   -0.068982
13
* Frequency(32) 1822.6957
C     1.648712    0.285800    0.019538   -0.085873    0.367523   -0.032828
C     1.548710   -0.853015    0.115091   -0.030238   -0.206329    0.017008
N     0.234593   -1.593212    0.143775   -0.000021    0.025974   -0.002276
C    -0.976162   -0.703235    0.032621   -0.202234   -0.151252    0.008187
N    -0.818985    0.524392   -0.067220    0.024301    0.164817   -0.013880
C     0.384751    1.696795   -0.133776    0.119681   -1.357655    0.117253
O    -2.127235   -1.348657    0.056748    0.131866    0.068364   -0.002581
O     0.450466    2.196225   -0.174802    0.001752    0.836783   -0.070920
H     2.325726   -1.596152    0.199053    0.175810   -0.035588    0.007698
H     0.139654   -2.177856    0.990781    0.000984    0.080966    0.053251
H    -1.460080    1.379226   -0.163664   -0.586277   -0.680269    0.051068
H     2.488957    1.031895   -0.022226    0.316386   -0.398416    0.041872
H     0.187713   -2.317760   -0.592859    0.002135    0.074509   -0.068982
13
* Frequency(32) 1822.6957
C     1.651141    0.275405    0.020467   -0.085873    0.367523   -0.032828
C     1.549565   -0.847179    0.114610   -0.030238   -0.206329    0.017008
N     0.234593   -1.593947    0.143840   -0.000021    0.025974   -0.002276
C    -0.970442   -0.698957    0.032389   -0.202234   -0.151252    0.008187
N    -0.819673    0.519730   -0.066828    0.024301    0.164817   -0.013880
C     0.381366    1.735194   -0.137092    0.119681   -1.357655    0.117253
O    -2.130965   -1.350590    0.056821    0.131866    0.068364   -0.002581
O     0.450416    2.172557   -0.172796    0.001752    0.836783   -0.070920
H     2.320754   -1.595146    0.198836    0.175810   -0.035588    0.007698
H     0.139626   -2.180146    0.989274    0.000984    0.080966    0.053251
H    -1.443498    1.398467   -0.165108   -0.586277   -0.680269    0.051068
H     2.480009    1.043164   -0.023410    0.316386   -0.398416    0.041872
H     0.187653   -2.319868   -0.590908    0.002135    0.074509   -0.068982
13
* Frequency(32) 1822.6957
C     1.650324    0.278901    0.020154   -0.085873    0.367523   -0.032828
C     1.549277   -0.849142    0.114772   -0.030238   -0.206329    0.017008
N     0.234593   -1.593699    0.143818   -0.000021    0.025974   -0.002276
C    -0.972366   -0.700396    0.032467   -0.202234   -0.151252    0.008187
N    -0.819441    0.521298   -0.066960    0.024301    0.164817   -0.013880
C     0.382504    1.722277   -0.135976    0.119681   -1.357655    0.117253
O    -2.129710   -1.349940    0.056796    0.131866    0.068364   -0.002581
O     0.450433    2.180519   -0.173471    0.001752    0.836783   -0.070920
H     2.322426   -1.595484    0.198909    0.175810   -0.035588    0.007698
H     0.139635   -2.179375    0.989781    0.000984    0.080966    0.053251
H    -1.449076    1.391995   -0.164622   -0.586277   -0.680269    0.051068
H     2.483019    1.039373   -0.023011    0.316386   -0.398416    0.041872
H     0.187673   -2.319159   -0.591564    0.002135    0.074509   -0.068982
13
* Frequency(32) 1822.6957
C     1.646350    0.295911    0.018635   -0.085873    0.367523   -0.032828
C     1.547878   -0.858691    0.115559   -0.030238   -0.206329    0.017008
N     0.234592   -1.592497    0.143713   -0.000021    0.025974   -0.002276
C    -0.981726   -0.707397    0.032846   -0.202234   -0.151252    0.008187
N    -0.818317    0.528926   -0.067602    0.024301    0.164817   -0.013880
C     0.388043    1.659442   -0.130550    0.119681   -1.357655    0.117253
O    -2.123608   -1.346776    0.056677    0.131866    0.068364   -0.002581
O     0.450514    2.219246   -0.176753    0.001752    0.836783   -0.070920
H     2.330563   -1.597131    0.199265    0.175810   -0.035588    0.007698
H     0.139681   -2.175628    0.992246    0.000984    0.080966    0.053251
H    -1.476210    1.360510   -0.162259   -0.586277   -0.680269    0.051068
H     2.497662    1.020934   -0.021074    0.316386   -0.398416    0.041872
H     0.187772   -2.315710   -0.594757    0.002135    0.074509   -0.068982
13
* Frequency(32) 1822.6957
C     1.639649    0.324590    0.016073   -0.085873    0.367523   -0.032828
C     1.545518   -0.874792    0.116886   -0.030238   -0.206329    0.017008
N     0.234590   -1.590470    0.143535   -0.000021    0.025974   -0.002276
C    -0.997507   -0.719199    0.033485   -0.202234   -0.151252    0.008187
N    -0.816420    0.541787   -0.068685    0.024301    0.164817   -0.013880
C     0.397383    1.553499   -0.121400    0.119681   -1.357655    0.117253
O    -2.113318   -1.341441    0.056475    0.131866    0.068364   -0.002581
O     0.450651    2.284544   -0.182287    0.001752    0.836783   -0.070920
H     2.344282   -1.599908    0.199866    0.175810   -0.035588    0.007698
H     0.139757   -2.169310    0.996401    0.000984    0.080966    0.053251
H    -1.521960    1.307427   -0.158274   -0.586277   -0.680269    0.051068
H     2.522351    0.989844   -0.017806    0.316386   -0.398416    0.041872
H     0.187939   -2.309896   -0.600139    0.002135    0.074509   -0.068982
13
* Frequency(32) 1822.6957
C     1.630947    0.361831    0.012747   -0.085873    0.367523   -0.032828
C     1.542454   -0.895699    0.118610   -0.030238   -0.206329    0.017008
N     0.234588   -1.587839    0.143305   -0.000021    0.025974   -0.002276
C    -1.017999   -0.734526    0.034314   -0.202234   -0.151252    0.008187
N    -0.813958    0.558488   -0.070091    0.024301    0.164817   -0.013880
C     0.409510    1.415929   -0.109519    0.119681   -1.357655    0.117253
O    -2.099956   -1.334514    0.056214    0.131866    0.068364   -0.002581
O     0.450828    2.369335   -0.189473    0.001752    0.836783   -0.070920
H     2.362097   -1.603514    0.200646    0.175810   -0.035588    0.007698
H     0.139857   -2.161106    1.001797    0.000984    0.080966    0.053251
H    -1.581367    1.238495   -0.153099   -0.586277   -0.680269    0.051068
H     2.554410    0.949473   -0.013563    0.316386   -0.398416    0.041872
H     0.188155   -2.302346   -0.607129    0.002135    0.074509   -0.068982
13
* Frequency(32) 1822.6957
C     1.621188    0.403598    0.009016   -0.085873    0.367523   -0.032828
C     1.539018   -0.919147    0.120543   -0.030238   -0.206329    0.017008
N     0.234586   -1.584887    0.143046   -0.000021    0.025974   -0.002276
C    -1.040982   -0.751715    0.035244   -0.202234   -0.151252    0.008187
N    -0.811196    0.577219   -0.071669    0.024301    0.164817   -0.013880
C     0.423111    1.261638   -0.096194    0.119681   -1.357655    0.117253
O    -2.084970   -1.326745    0.055920    0.131866    0.068364   -0.002581
O     0.451027    2.464431   -0.197533    0.001752    0.836783   -0.070920
H     2.382077   -1.607559    0.201521    0.175810   -0.035588    0.007698
H     0.139969   -2.151905    1.007849    0.000984    0.080966    0.053251
H    -1.647994    1.161186   -0.147295   -0.586277   -0.680269    0.051068
H     2.590366    0.904195   -0.008805    0.316386   -0.398416    0.041872
H     0.188398   -2.293879   -0.614969    0.002135    0.074509   -0.068982
