
                                 *****************
                                 * O   R   C   A *
                                 *****************

           --- An Ab Initio, DFT and Semiempirical electronic structure package ---

                  #######################################################
                  #                        -***-                        #
                  #          Department of theory and spectroscopy      #
                  #               Directorship: Frank Neese             #
                  #        Max Planck Institute fuer Kohlenforschung    #
                  #                Kaiser Wilhelm Platz 1               #
                  #                 D-45470 Muelheim/Ruhr               #
                  #                      Germany                        #
                  #                                                     #
                  #                  All rights reserved                #
                  #                        -***-                        #
                  #######################################################


                         Program Version 4.2.1 -  RELEASE  -


 With contributions from (in alphabetic order):
   Daniel Aravena         : Magnetic Suceptibility
   Michael Atanasov       : Ab Initio Ligand Field Theory (pilot matlab implementation)
   Alexander A. Auer      : GIAO ZORA, VPT2
   Ute Becker             : Parallelization
   Giovanni Bistoni       : ED, misc. LED, open-shell LED, HFLD
   Martin Brehm           : Molecular dynamics
   Dmytro Bykov           : SCF Hessian
   Vijay G. Chilkuri      : MRCI spin determinant printing, contributions to CSF-ICE
   Dipayan Datta          : RHF DLPNO-CCSD density
   Achintya Kumar Dutta   : EOM-CC, STEOM-CC
   Dmitry Ganyushin       : Spin-Orbit,Spin-Spin,Magnetic field MRCI
   Miquel Garcia          : C-PCM Hessian, Gaussian charge scheme
   Yang Guo               : DLPNO-NEVPT2, CIM, IAO-localization
   Andreas Hansen         : Spin unrestricted coupled pair/coupled cluster methods
   Benjamin Helmich-Paris : CASSCF linear response (MC-RPA)
   Lee Huntington         : MR-EOM, pCC
   Robert Izsak           : Overlap fitted RIJCOSX, COSX-SCS-MP3, EOM
   Christian Kollmar      : KDIIS, OOCD, Brueckner-CCSD(T), CCSD density
   Simone Kossmann        : Meta GGA functionals, TD-DFT gradient, OOMP2, MP2 Hessian
   Martin Krupicka        : AUTO-CI
   Lucas Lang             : DCDCAS
   Dagmar Lenk            : GEPOL surface, SMD
   Dimitrios Liakos       : Extrapolation schemes; Compound Job, initial MDCI parallelization
   Dimitrios Manganas     : Further ROCIS development; embedding schemes
   Dimitrios Pantazis     : SARC Basis sets
   Taras Petrenko         : DFT Hessian,TD-DFT gradient, ASA, ECA, R-Raman, ABS, FL, XAS/XES, NRVS
   Peter Pinski           : DLPNO-MP2, DLPNO-MP2 Gradient
   Christoph Reimann      : Effective Core Potentials
   Marius Retegan         : Local ZFS, SOC
   Christoph Riplinger    : Optimizer, TS searches, QM/MM, DLPNO-CCSD(T), (RO)-DLPNO pert. Triples
   Tobias Risthaus        : Range-separated hybrids, TD-DFT gradient, RPA, STAB
   Michael Roemelt        : Original ROCIS implementation
   Masaaki Saitow         : Open-shell DLPNO-CCSD energy and density
   Barbara Sandhoefer     : DKH picture change effects
   Avijit Sen             : IP-ROCIS
   Kantharuban Sivalingam : CASSCF convergence, NEVPT2, FIC-MRCI
   Bernardo de Souza      : ESD, SOC TD-DFT
   Georgi Stoychev        : AutoAux, RI-MP2 NMR
   Willem Van den Heuvel  : Paramagnetic NMR
   Boris Wezisla          : Elementary symmetry handling
   Frank Wennmohs         : Technical directorship


 We gratefully acknowledge several colleagues who have allowed us to
 interface, adapt or use parts of their codes:
   Stefan Grimme, W. Hujo, H. Kruse,             : VdW corrections, initial TS optimization,
                  C. Bannwarth                     DFT functionals, gCP, sTDA/sTD-DF
   Ed Valeev, F. Pavosevic, A. Kumar             : LibInt (2-el integral package), F12 methods
   Garnet Chan, S. Sharma, J. Yang, R. Olivares  : DMRG
   Ulf Ekstrom                                   : XCFun DFT Library
   Mihaly Kallay                                 : mrcc  (arbitrary order and MRCC methods)
   Andreas Klamt, Michael Diedenhofen            : otool_cosmo (COSMO solvation model)
   Jiri Pittner, Ondrej Demel                    : Mk-CCSD
   Frank Weinhold                                : gennbo (NPA and NBO analysis)
   Christopher J. Cramer and Donald G. Truhlar   : smd solvation model
   Lars Goerigk                                  : TD-DFT with DH, B97 family of functionals
   V. Asgeirsson, H. Jonsson                     : NEB implementation
   FAccTs GmbH                                   : IRC, NEB, NEB-TS, Multilevel, MM, QM/MM, CI optimization
   S Lehtola, MJT Oliveira, MAL Marques          : LibXC Library


 Your calculation uses the libint2 library for the computation of 2-el integrals
 For citations please refer to: http://libint.valeyev.net

 Your ORCA version has been built with support for libXC version: 4.2.3
 For citations please refer to: https://tddft.org/programs/libxc/

 This ORCA versions uses:
   CBLAS   interface :  Fast vector & matrix operations
   LAPACKE interface :  Fast linear algebra routines


----- Orbital basis set information -----
Your calculation utilizes the basis: def2-SVP
   F. Weigend and R. Ahlrichs, Phys. Chem. Chem. Phys. 7, 3297 (2005).

================================================================================
                                        WARNINGS
                       Please study these warnings very carefully!
================================================================================


WARNING: Geometry Optimization
  ===> : Switching off AutoStart
         For restart on a previous wavefunction, please use MOREAD

INFO   : the flag for use of LIBINT has been found!

================================================================================
                                       INPUT FILE
================================================================================
NAME = Uracil_1.inp
|  1> !B3LYP def2-SVP OPT FREQ CPCM(WATER)

|  2> * xyz 1 1

|  3>    C        1.33878        0.51508       -0.01708

|  4>    C        1.24526       -0.81240        0.09268

|  5>    N       -0.02415       -1.41966        0.11620

|  6>    C       -1.17237       -0.61743        0.00888

|  7>    N       -1.05625        0.71979       -0.10636

|  8>    C        0.13881        1.36406       -0.11760

|  9>    O       -2.19305       -1.27075        0.03788

| 10>    O        0.23534        2.57757       -0.20466

| 11>    H        2.15069       -1.41636        0.16463

| 12>    H       -0.21763       -1.98249        0.95584

| 13>    H       -1.89431        1.28315       -0.17534

| 14>    H        2.29444        1.03083       -0.03758

| 15>    H       -0.17622       -2.13392       -0.60893

| 16> *

| 17> 

| 18> 

| 19> 
| 20>                          ****END OF INPUT****
================================================================================

                       *****************************
                       * Geometry Optimization Run *
                       *****************************

Geometry optimization settings:
Update method            Update   .... BFGS
Choice of coordinates    CoordSys .... Z-matrix Internals
Initial Hessian          InHess   .... Almoef's Model

Convergence Tolerances:
Energy Change            TolE     ....  5.0000e-06 Eh
Max. Gradient            TolMAXG  ....  3.0000e-04 Eh/bohr
RMS Gradient             TolRMSG  ....  1.0000e-04 Eh/bohr
Max. Displacement        TolMAXD  ....  4.0000e-03 bohr
RMS Displacement         TolRMSD  ....  2.0000e-03 bohr
Strict Convergence                ....  False
------------------------------------------------------------------------------
                        ORCA OPTIMIZATION COORDINATE SETUP
------------------------------------------------------------------------------

The optimization will be done in new redundant internal coordinates
Making redundant internal coordinates   ...  (new redundants) done
Evaluating the initial hessian          ...  (Almloef) done
Evaluating the coordinates              ...  done
Calculating the B-matrix                .... done
Calculating the G-matrix                .... done
Diagonalizing the G-matrix              .... done
The first mode is                       ....   29
The number of degrees of freedom        ....   33

    -----------------------------------------------------------------
                    Redundant Internal Coordinates


    -----------------------------------------------------------------
         Definition                    Initial Value    Approx d2E/dq
    -----------------------------------------------------------------
      1. B(C   1,C   0)                  1.3353         0.763883   
      2. B(N   2,C   1)                  1.4074         0.524984   
      3. B(C   3,N   2)                  1.4048         0.529959   
      4. B(N   4,C   3)                  1.3472         0.654901   
      5. B(C   5,N   4)                  1.3577         0.630073   
      6. B(C   5,C   0)                  1.4734         0.459979   
      7. B(O   6,C   3)                  1.2122         1.075292   
      8. B(O   7,C   5)                  1.2205         1.043225   
      9. B(H   8,C   1)                  1.0908         0.359102   
     10. B(H   9,N   2)                  1.0292         0.403272   
     11. B(H  10,N   4)                  1.0122         0.429281   
     12. B(H  11,C   0)                  1.0861         0.365240   
     13. B(H  12,N   2)                  1.0291         0.403344   
     14. A(C   5,C   0,H  11)          116.2123         0.336458   
     15. A(C   1,C   0,H  11)          122.3604         0.366563   
     16. A(C   1,C   0,C   5)          121.4273         0.427120   
     17. A(C   0,C   1,N   2)          119.5712         0.434522   
     18. A(C   0,C   1,H   8)          119.8515         0.365500   
     19. A(N   2,C   1,H   8)          120.5772         0.340907   
     20. A(C   3,N   2,H   9)          102.7657         0.345142   
     21. A(C   1,N   2,H   9)          114.7819         0.344595   
     22. A(C   3,N   2,H  12)          102.8110         0.345152   
     23. A(C   1,N   2,H  12)          114.8960         0.344606   
     24. A(C   1,N   2,C   3)          119.3104         0.404463   
     25. A(H   9,N   2,H  12)           99.6430         0.296540   
     26. A(N   2,C   3,O   6)          112.2474         0.460044   
     27. A(N   2,C   3,N   4)          120.1931         0.420653   
     28. A(N   4,C   3,O   6)          127.5593         0.478255   
     29. A(C   3,N   4,H  10)          119.1391         0.361541   
     30. A(C   3,N   4,C   5)          123.2019         0.433900   
     31. A(C   5,N   4,H  10)          117.6530         0.359167   
     32. A(C   0,C   5,N   4)          116.2877         0.410035   
     33. A(N   4,C   5,O   7)          122.8224         0.472229   
     34. A(C   0,C   5,O   7)          120.8900         0.448847   
     35. D(N   2,C   1,C   0,C   5)     -0.1322         0.041764   
     36. D(H   8,C   1,C   0,C   5)    179.9514         0.041764   
     37. D(H   8,C   1,C   0,H  11)     -0.0495         0.041764   
     38. D(N   2,C   1,C   0,H  11)    179.8668         0.041764   
     39. D(C   3,N   2,C   1,H   8)   -179.3957         0.023739   
     40. D(H   9,N   2,C   1,C   0)   -121.8797         0.023739   
     41. D(H  12,N   2,C   1,C   0)    123.4329         0.023739   
     42. D(C   3,N   2,C   1,C   0)      0.6885         0.023739   
     43. D(H   9,N   2,C   1,H   8)     58.0361         0.023739   
     44. D(H  12,N   2,C   1,H   8)    -56.6513         0.023739   
     45. D(O   6,C   3,N   2,C   1)    179.7146         0.024214   
     46. D(N   4,C   3,N   2,H   9)    127.8885         0.024214   
     47. D(N   4,C   3,N   2,C   1)     -0.4339         0.024214   
     48. D(O   6,C   3,N   2,H   9)    -51.9630         0.024214   
     49. D(N   4,C   3,N   2,H  12)   -128.9522         0.024214   
     50. D(O   6,C   3,N   2,H  12)     51.1963         0.024214   
     51. D(H  10,N   4,C   3,O   6)      0.3028         0.035048   
     52. D(H  10,N   4,C   3,N   2)   -179.5238         0.035048   
     53. D(C   5,N   4,C   3,O   6)    179.3964         0.035048   
     54. D(C   5,N   4,C   3,N   2)     -0.4302         0.035048   
     55. D(O   7,C   5,N   4,H  10)      0.0995         0.032229   
     56. D(C   0,C   5,N   4,H  10)   -179.9371         0.032229   
     57. D(C   0,C   5,N   4,C   3)      0.9566         0.032229   
     58. D(O   7,C   5,C   0,H  11)     -0.7082         0.014413   
     59. D(O   7,C   5,C   0,C   1)    179.2909         0.014413   
     60. D(O   7,C   5,N   4,C   3)   -179.0068         0.032229   
     61. D(N   4,C   5,C   0,H  11)    179.3277         0.014413   
     62. D(N   4,C   5,C   0,C   1)     -0.6732         0.014413   
    -----------------------------------------------------------------

Number of atoms                         .... 13
Number of degrees of freedom            .... 62

         *************************************************************
         *                GEOMETRY OPTIMIZATION CYCLE   1            *
         *************************************************************
---------------------------------
CARTESIAN COORDINATES (ANGSTROEM)
---------------------------------
  C      1.338780    0.515080   -0.017080
  C      1.245260   -0.812400    0.092680
  N     -0.024150   -1.419660    0.116200
  C     -1.172370   -0.617430    0.008880
  N     -1.056250    0.719790   -0.106360
  C      0.138810    1.364060   -0.117600
  O     -2.193050   -1.270750    0.037880
  O      0.235340    2.577570   -0.204660
  H      2.150690   -1.416360    0.164630
  H     -0.217630   -1.982490    0.955840
  H     -1.894310    1.283150   -0.175340
  H      2.294440    1.030830   -0.037580
  H     -0.176220   -2.133920   -0.608930

----------------------------
CARTESIAN COORDINATES (A.U.)
----------------------------
  NO LB      ZA    FRAG     MASS         X           Y           Z
   0 C     6.0000    0    12.011    2.529928    0.973360   -0.032277
   1 C     6.0000    0    12.011    2.353200   -1.535214    0.175140
   2 N     7.0000    0    14.007   -0.045637   -2.682769    0.219586
   3 C     6.0000    0    12.011   -2.215458   -1.166774    0.016781
   4 N     7.0000    0    14.007   -1.996023    1.360206   -0.200991
   5 C     6.0000    0    12.011    0.262313    2.577700   -0.222232
   6 O     8.0000    0    15.999   -4.144264   -2.401369    0.071583
   7 O     8.0000    0    15.999    0.444728    4.870901   -0.386751
   8 H     1.0000    0     1.008    4.064215   -2.676533    0.311106
   9 H     1.0000    0     1.008   -0.411261   -3.746363    1.806276
  10 H     1.0000    0     1.008   -3.579727    2.424802   -0.331345
  11 H     1.0000    0     1.008    4.335863    1.947986   -0.071016
  12 H     1.0000    0     1.008   -0.333008   -4.032524   -1.150711

--------------------------------
INTERNAL COORDINATES (ANGSTROEM)
--------------------------------
 C      0   0   0     0.000000000000     0.00000000     0.00000000
 C      1   0   0     1.335288882003     0.00000000     0.00000000
 N      2   1   0     1.407380419823   119.57115907     0.00000000
 C      3   2   1     1.404813056495   119.31044904     0.68851628
 N      4   3   2     1.347190202013   120.19312262   359.56613162
 C      5   4   3     1.357710784409   123.20192506   359.56982096
 O      4   3   2     1.212211072710   112.24738041   179.71462617
 O      6   5   4     1.220452377031   122.82236896   180.99322907
 H      2   1   3     1.090755687127   119.85153982   180.08361692
 H      3   2   1     1.029178045287   114.78190191   238.12029294
 H      5   4   3     1.012164657356   119.13913307   180.47615880
 H      1   2   3     1.086141955777   122.36044792   179.86684319
 H      3   2   1     1.029128830322   114.89596939   123.43288883

---------------------------
INTERNAL COORDINATES (A.U.)
---------------------------
 C      0   0   0     0.000000000000     0.00000000     0.00000000
 C      1   0   0     2.523330296655     0.00000000     0.00000000
 N      2   1   0     2.659563559708   119.57115907     0.00000000
 C      3   2   1     2.654711946133   119.31044904     0.68851628
 N      4   3   2     2.545820532107   120.19312262   359.56613162
 C      5   4   3     2.565701551604   123.20192506   359.56982096
 O      4   3   2     2.290746943928   112.24738041   179.71462617
 O      6   5   4     2.306320752081   122.82236896   180.99322907
 H      2   1   3     2.061229527687   119.85153982   180.08361692
 H      3   2   1     1.944864648636   114.78190191   238.12029294
 H      5   4   3     1.912714004837   119.13913307   180.47615880
 H      1   2   3     2.052510838981   122.36044792   179.86684319
 H      3   2   1     1.944771645831   114.89596939   123.43288883

---------------------
BASIS SET INFORMATION
---------------------
There are 4 groups of distinct atoms

 Group   1 Type C   : 7s4p1d contracted to 3s2p1d pattern {511/31/1}
 Group   2 Type N   : 7s4p1d contracted to 3s2p1d pattern {511/31/1}
 Group   3 Type O   : 7s4p1d contracted to 3s2p1d pattern {511/31/1}
 Group   4 Type H   : 4s1p contracted to 2s1p pattern {31/1}

Atom   0C    basis set group =>   1
Atom   1C    basis set group =>   1
Atom   2N    basis set group =>   2
Atom   3C    basis set group =>   1
Atom   4N    basis set group =>   2
Atom   5C    basis set group =>   1
Atom   6O    basis set group =>   3
Atom   7O    basis set group =>   3
Atom   8H    basis set group =>   4
Atom   9H    basis set group =>   4
Atom  10H    basis set group =>   4
Atom  11H    basis set group =>   4
Atom  12H    basis set group =>   4
------------------------------------------------------------------------------
                           ORCA GTO INTEGRAL CALCULATION
------------------------------------------------------------------------------

                         BASIS SET STATISTICS AND STARTUP INFO

 # of primitive gaussian shells          ...  121
 # of primitive gaussian functions       ...  227
 # of contracted shells                  ...   63
 # of contracted basis functions         ...  137
 Highest angular momentum                ...    2
 Maximum contraction depth               ...    5
 Integral package used                   ... LIBINT
 Integral threshhold            Thresh   ...  2.500e-11
 Primitive cut-off              TCut     ...  2.500e-12


------------------------------ INTEGRAL EVALUATION ----------------------------


 * One electron integrals 
 Pre-screening matrix                    ... done
 Shell pair data                         ... done (   0.001 sec)

Timings:
 Total evaluation time               ...     0.001 sec (   0.000 min)
 One electron matrix time            ...     0.008 sec (   0.000 min) =800.0%
 Schwartz matrix evaluation time     ...     0.085 sec (   0.001 min) =8500.0%

-------------------------------------------------------------------------------
                                 ORCA SCF
-------------------------------------------------------------------------------

------------
SCF SETTINGS
------------
Hamiltonian:
 Density Functional     Method          .... DFT(GTOs)
 Exchange Functional    Exchange        .... B88
   X-Alpha parameter    XAlpha          ....  0.666667
   Becke's b parameter  XBeta           ....  0.004200
 Correlation Functional Correlation     .... LYP
 LDA part of GGA corr.  LDAOpt          .... VWN-5
 Gradients option       PostSCFGGA      .... off
 Hybrid DFT is turned on
   Fraction HF Exchange ScalHFX         ....  0.200000
   Scaling of DF-GGA-X  ScalDFX         ....  0.720000
   Scaling of DF-GGA-C  ScalDFC         ....  0.810000
   Scaling of DF-LDA-C  ScalLDAC        ....  1.000000
   Perturbative correction              ....  0.000000
   Density functional embedding theory  .... OFF
   NL short-range parameter             ....  4.800000


General Settings:
 Integral files         IntName         .... Uracil_1
 Hartree-Fock type      HFTyp           .... RHF
 Total Charge           Charge          ....    1
 Multiplicity           Mult            ....    1
 Number of Electrons    NEL             ....   58
 Basis Dimension        Dim             ....  137
 Nuclear Repulsion      ENuc            ....    372.4078870936 Eh

Convergence Acceleration:
 DIIS                   CNVDIIS         .... on
   Start iteration      DIISMaxIt       ....    12
   Startup error        DIISStart       ....  0.200000
   # of expansion vecs  DIISMaxEq       ....     5
   Bias factor          DIISBfac        ....   1.050
   Max. coefficient     DIISMaxC        ....  10.000
 Newton-Raphson         CNVNR           .... off
 SOSCF                  CNVSOSCF        .... on
   Start iteration      SOSCFMaxIt      ....   150
   Startup grad/error   SOSCFStart      ....  0.003300
 Level Shifting         CNVShift        .... on
   Level shift para.    LevelShift      ....    0.2500
   Turn off err/grad.   ShiftErr        ....    0.0010
 Zerner damping         CNVZerner       .... off
 Static damping         CNVDamp         .... on
   Fraction old density DampFac         ....    0.7000
   Max. Damping (<1)    DampMax         ....    0.9800
   Min. Damping (>=0)   DampMin         ....    0.0000
   Turn off err/grad.   DampErr         ....    0.1000
 Fernandez-Rico         CNVRico         .... off

SCF Procedure:
 Maximum # iterations   MaxIter         ....   125
 SCF integral mode      SCFMode         .... Direct
   Integral package                     .... LIBINT
 Reset frequency        DirectResetFreq ....    20
 Integral Threshold     Thresh          ....  2.500e-11 Eh
 Primitive CutOff       TCut            ....  2.500e-12 Eh

Convergence Tolerance:
 Convergence Check Mode ConvCheckMode   .... Total+1el-Energy
 Convergence forced     ConvForced      .... 0
 Energy Change          TolE            ....  1.000e-08 Eh
 1-El. energy change                    ....  1.000e-05 Eh
 Orbital Gradient       TolG            ....  1.000e-05
 Orbital Rotation angle TolX            ....  1.000e-05
 DIIS Error             TolErr          ....  5.000e-07


Diagonalization of the overlap matrix:
Smallest eigenvalue                        ... 1.246e-03
Time for diagonalization                   ...    0.002 sec
Threshold for overlap eigenvalues          ... 1.000e-08
Number of eigenvalues below threshold      ... 0
Time for construction of square roots      ...    0.001 sec
Total time needed                          ...    0.003 sec

-------------------
DFT GRID GENERATION
-------------------

General Integration Accuracy     IntAcc      ...  4.340
Radial Grid Type                 RadialGrid  ... Gauss-Chebyshev
Angular Grid (max. acc.)         AngularGrid ... Lebedev-110
Angular grid pruning method      GridPruning ... 3 (G Style)
Weight generation scheme         WeightScheme... Becke
Basis function cutoff            BFCut       ...    1.0000e-11
Integration weight cutoff        WCut        ...    1.0000e-14
Grids for H and He will be reduced by one unit

# of grid points (after initial pruning)     ...  17430 (   0.0 sec)
# of grid points (after weights+screening)   ...  16314 (   0.0 sec)
nearest neighbour list constructed           ...    0.0 sec
Grid point re-assignment to atoms done       ...    0.0 sec
Grid point division into batches done        ...    0.0 sec
Reduced shell lists constructed in    0.1 sec

Total number of grid points                  ...    16314
Total number of batches                      ...      260
Average number of points per batch           ...       62
Average number of grid points per atom       ...     1255
Average number of shells per batch           ...    47.16 (74.85%)
Average number of basis functions per batch  ...   102.87 (75.08%)
Average number of large shells per batch     ...    37.92 (80.42%)
Average number of large basis fcns per batch ...    81.11 (78.85%)
Maximum spatial batch extension              ...  18.65, 20.42, 25.60 au
Average spatial batch extension              ...   3.75,  3.54,  4.27 au

Time for grid setup =    0.075 sec

------------------------------
INITIAL GUESS: MODEL POTENTIAL
------------------------------
Loading Hartree-Fock densities                     ... done
Calculating cut-offs                               ... done
Setting up the integral package                    ... done
Initializing the effective Hamiltonian             ... done
Starting the Coulomb interaction                   ... done (   0.0 sec)
Reading the grid                                   ... done
Mapping shells                                     ... done
Starting the XC term evaluation                    ... done (   0.1 sec)
  promolecular density results
     # of electrons  =     58.994365715
     EX              =    -51.705306378
     EC              =     -2.062314485
     EX+EC           =    -53.767620863
Transforming the Hamiltonian                       ... done (   0.0 sec)
Diagonalizing the Hamiltonian                      ... done (   0.0 sec)
Back transforming the eigenvectors                 ... done (   0.0 sec)
Now organizing SCF variables                       ... done
                      ------------------
                      INITIAL GUESS DONE (   0.3 sec)
                      ------------------

--------------------
CPCM SOLVATION MODEL
--------------------
CPCM parameters:
  Epsilon                                         ...      80.4000
  Refrac                                          ...       1.3300
  Rsolv                                           ...       1.3000
  Surface type                                    ...    GEPOL SES
  Epsilon function type                           ...         CPCM
Radii:
 Radius for C  used is    3.7795 Bohr (=   2.0000 Ang.)
 Radius for N  used is    3.4582 Bohr (=   1.8300 Ang.)
 Radius for O  used is    3.2503 Bohr (=   1.7200 Ang.)
 Radius for H  used is    2.4566 Bohr (=   1.3000 Ang.)
Calculating surface                               ...        done! (  0.0s)
GEPOL surface points                              ...          403
GEPOL Volume                                      ...     809.5035
GEPOL Surface-area                                ...     483.5190
Calculating surface distance matrix               ...        done! (  0.0s)
Performing Cholesky decomposition & store         ...        done! (  0.0s)
Overall time for CPCM initialization              ...                 0.0s
--------------
SCF ITERATIONS
--------------
ITER       Energy         Delta-E        Max-DP      RMS-DP      [F,P]     Damp
               ***  Starting incremental Fock matrix formation  ***
  0   -414.4477870203   0.000000000000 0.13741682  0.00383008  0.2683248 0.7000
  1   -414.5712659949  -0.123478974591 0.08227453  0.00230067  0.1021198 0.7000
                               ***Turning on DIIS***
  2   -414.6092393941  -0.037973399162 0.06883873  0.00284530  0.0397062 0.0000
  3   -414.6836368627  -0.074397468643 0.06586662  0.00167631  0.0574323 0.0000
  4   -414.6943948066  -0.010757943841 0.01201746  0.00041161  0.0167728 0.0000
                      *** Initiating the SOSCF procedure ***
                           *** Shutting down DIIS ***
                      *** Re-Reading the Fockian *** 
                      *** Removing any level shift *** 
ITER      Energy       Delta-E        Grad      Rot      Max-DP    RMS-DP
  5   -414.69579341  -0.0013986017  0.000703  0.000703  0.003559  0.000114
               *** Restarting incremental Fock matrix formation ***
  6   -414.69583295  -0.0000395458  0.000696  0.001994  0.003534  0.000091
  7   -414.69581589   0.0000170631  0.001107  0.001337  0.002085  0.000056
  8   -414.69584285  -0.0000269560  0.000130  0.000433  0.000541  0.000019
  9   -414.69584226   0.0000005868  0.000193  0.000324  0.000405  0.000011
 10   -414.69584319  -0.0000009325  0.000017  0.000056  0.000077  0.000003
 11   -414.69584318   0.0000000093  0.000020  0.000031  0.000048  0.000001
 12   -414.69584320  -0.0000000180  0.000003  0.000005  0.000011  0.000000
 13   -414.69584320   0.0000000000  0.000003  0.000004  0.000007  0.000000
                  ***Gradient check signals convergence***
              ***Rediagonalizing the Fockian in SOSCF/NRSCF***

               *****************************************************
               *                     SUCCESS                       *
               *           SCF CONVERGED AFTER  14 CYCLES          *
               *****************************************************

Setting up the final grid:

General Integration Accuracy     IntAcc      ...  4.670
Radial Grid Type                 RadialGrid  ... Gauss-Chebyshev
Angular Grid (max. acc.)         AngularGrid ... Lebedev-302
Angular grid pruning method      GridPruning ... 3 (G Style)
Weight generation scheme         WeightScheme... Becke
Basis function cutoff            BFCut       ...    1.0000e-11
Integration weight cutoff        WCut        ...    1.0000e-14
Grids for H and He will be reduced by one unit

# of grid points (after initial pruning)     ...  66666 (   0.0 sec)
# of grid points (after weights+screening)   ...  61566 (   0.1 sec)
nearest neighbour list constructed           ...    0.0 sec
Grid point re-assignment to atoms done       ...    0.0 sec
Grid point division into batches done        ...    0.1 sec
Reduced shell lists constructed in    0.3 sec

Total number of grid points                  ...    61566
Total number of batches                      ...      969
Average number of points per batch           ...       63
Average number of grid points per atom       ...     4736
Average number of shells per batch           ...    43.22 (68.61%)
Average number of basis functions per batch  ...    93.56 (68.29%)
Average number of large shells per batch     ...    34.00 (78.66%)
Average number of large basis fcns per batch ...    71.93 (76.88%)
Maximum spatial batch extension              ...  18.54, 18.53, 20.45 au
Average spatial batch extension              ...   2.55,  2.49,  2.71 au

Final grid set up in    0.4 sec
Final integration                            ... done (   0.4 sec)
Change in XC energy                          ...    -0.000400315
Integrated number of electrons               ...    57.999978318
Previous integrated no of electrons          ...    57.996634037

----------------
TOTAL SCF ENERGY
----------------

Total Energy       :         -414.69624352 Eh          -11284.45848 eV

Components:
Nuclear Repulsion  :          372.40788709 Eh           10133.73380 eV
Electronic Energy  :         -787.10413061 Eh          -21418.19227 eV
One Electron Energy:        -1288.98773224 Eh          -35075.13938 eV
Two Electron Energy:          501.88360163 Eh           13656.94711 eV
CPCM Dielectric    :           -0.13757960 Eh              -3.74373 eV

Virial components:
Potential Energy   :         -826.08716531 Eh          -22478.97458 eV
Kinetic Energy     :          411.39092179 Eh           11194.51610 eV
Virial Ratio       :            2.00803450


DFT components:
N(Alpha)           :       28.999989159190 electrons
N(Beta)            :       28.999989159190 electrons
N(Total)           :       57.999978318379 electrons
E(X)               :      -41.344854900914 Eh       
E(C)               :       -2.391657476433 Eh       
E(XC)              :      -43.736512377347 Eh       
DFET-embed. en.    :        0.000000000000 Eh       
CPCM Solvation Model Properties:
Surface-charge          :           -1.01182131
Charge-correction       :            0.00185307 Eh               0.05042 eV
Free-energy (cav+disp)  :            0.00356462 Eh               0.09700 eV
Corrected G(solv)       :         -414.69082583 Eh          -11284.31105 eV

---------------
SCF CONVERGENCE
---------------

  Last Energy change         ...   -4.7180e-12  Tolerance :   1.0000e-08
  Last MAX-Density change    ...    3.1549e-06  Tolerance :   1.0000e-07
  Last RMS-Density change    ...    1.0768e-07  Tolerance :   5.0000e-09
  Last Orbital Gradient      ...    5.7435e-07  Tolerance :   1.0000e-05
  Last Orbital Rotation      ...    1.4920e-06  Tolerance :   1.0000e-05

             **** THE GBW FILE WAS UPDATED (Uracil_1.gbw) ****
             **** DENSITY FILE WAS UPDATED (Uracil_1.scfp) ****
             **** ENERGY FILE WAS UPDATED (Uracil_1.en.tmp) ****
             **** THE GBW FILE WAS UPDATED (Uracil_1.gbw) ****
             **** DENSITY FILE WAS UPDATED (Uracil_1.scfp) ****
----------------
ORBITAL ENERGIES
----------------

  NO   OCC          E(Eh)            E(eV) 
   0   2.0000     -19.168683      -521.6064 
   1   2.0000     -19.151739      -521.1453 
   2   2.0000     -14.498793      -394.5322 
   3   2.0000     -14.425511      -392.5381 
   4   2.0000     -10.390246      -282.7330 
   5   2.0000     -10.340047      -281.3670 
   6   2.0000     -10.286396      -279.9071 
   7   2.0000     -10.241738      -278.6918 
   8   2.0000      -1.143997       -31.1298 
   9   2.0000      -1.077539       -29.3213 
  10   2.0000      -1.042087       -28.3566 
  11   2.0000      -0.988591       -26.9009 
  12   2.0000      -0.833682       -22.6856 
  13   2.0000      -0.732301       -19.9269 
  14   2.0000      -0.719600       -19.5813 
  15   2.0000      -0.646349       -17.5881 
  16   2.0000      -0.637978       -17.3603 
  17   2.0000      -0.615142       -16.7389 
  18   2.0000      -0.562502       -15.3065 
  19   2.0000      -0.505805       -13.7637 
  20   2.0000      -0.491631       -13.3780 
  21   2.0000      -0.488077       -13.2812 
  22   2.0000      -0.461564       -12.5598 
  23   2.0000      -0.448933       -12.2161 
  24   2.0000      -0.435041       -11.8381 
  25   2.0000      -0.340968        -9.2782 
  26   2.0000      -0.331701        -9.0260 
  27   2.0000      -0.326807        -8.8929 
  28   2.0000      -0.306025        -8.3274 
  29   0.0000      -0.096243        -2.6189 
  30   0.0000      -0.049114        -1.3365 
  31   0.0000       0.028044         0.7631 
  32   0.0000       0.052647         1.4326 
  33   0.0000       0.076465         2.0807 
  34   0.0000       0.081024         2.2048 
  35   0.0000       0.098040         2.6678 
  36   0.0000       0.123230         3.3533 
  37   0.0000       0.153312         4.1718 
  38   0.0000       0.172106         4.6832 
  39   0.0000       0.191618         5.2142 
  40   0.0000       0.217738         5.9249 
  41   0.0000       0.250530         6.8173 
  42   0.0000       0.277539         7.5522 
  43   0.0000       0.308313         8.3896 
  44   0.0000       0.373956        10.1759 
  45   0.0000       0.387532        10.5453 
  46   0.0000       0.395684        10.7671 
  47   0.0000       0.397967        10.8292 
  48   0.0000       0.474684        12.9168 
  49   0.0000       0.480757        13.0821 
  50   0.0000       0.497962        13.5502 
  51   0.0000       0.501557        13.6481 
  52   0.0000       0.507563        13.8115 
  53   0.0000       0.554178        15.0799 
  54   0.0000       0.560273        15.2458 
  55   0.0000       0.582490        15.8503 
  56   0.0000       0.582684        15.8556 
  57   0.0000       0.596088        16.2204 
  58   0.0000       0.620467        16.8838 
  59   0.0000       0.649307        17.6686 
  60   0.0000       0.680320        18.5124 
  61   0.0000       0.706891        19.2355 
  62   0.0000       0.718996        19.5649 
  63   0.0000       0.758945        20.6520 
  64   0.0000       0.765731        20.8366 
  65   0.0000       0.774011        21.0619 
  66   0.0000       0.810002        22.0413 
  67   0.0000       0.825373        22.4595 
  68   0.0000       0.861646        23.4466 
  69   0.0000       0.963439        26.2165 
  70   0.0000       0.980813        26.6893 
  71   0.0000       1.012514        27.5519 
  72   0.0000       1.039187        28.2777 
  73   0.0000       1.054458        28.6933 
  74   0.0000       1.066710        29.0266 
  75   0.0000       1.093254        29.7489 
  76   0.0000       1.125016        30.6133 
  77   0.0000       1.152877        31.3714 
  78   0.0000       1.193409        32.4743 
  79   0.0000       1.252540        34.0833 
  80   0.0000       1.253029        34.0966 
  81   0.0000       1.277685        34.7676 
  82   0.0000       1.328538        36.1514 
  83   0.0000       1.360374        37.0177 
  84   0.0000       1.455864        39.6161 
  85   0.0000       1.498491        40.7760 
  86   0.0000       1.512480        41.1567 
  87   0.0000       1.530846        41.6564 
  88   0.0000       1.547224        42.1021 
  89   0.0000       1.590176        43.2709 
  90   0.0000       1.654556        45.0228 
  91   0.0000       1.688060        45.9344 
  92   0.0000       1.716576        46.7104 
  93   0.0000       1.729374        47.0587 
  94   0.0000       1.783930        48.5432 
  95   0.0000       1.816693        49.4347 
  96   0.0000       1.817671        49.4614 
  97   0.0000       1.870839        50.9081 
  98   0.0000       1.912434        52.0400 
  99   0.0000       1.943160        52.8761 
 100   0.0000       1.992053        54.2065 
 101   0.0000       1.993659        54.2502 
 102   0.0000       2.028790        55.2062 
 103   0.0000       2.056069        55.9485 
 104   0.0000       2.059869        56.0519 
 105   0.0000       2.124364        57.8069 
 106   0.0000       2.139138        58.2089 
 107   0.0000       2.221257        60.4435 
 108   0.0000       2.238778        60.9203 
 109   0.0000       2.281796        62.0908 
 110   0.0000       2.365494        64.3684 
 111   0.0000       2.409740        65.5724 
 112   0.0000       2.459699        66.9318 
 113   0.0000       2.468056        67.1592 
 114   0.0000       2.479725        67.4767 
 115   0.0000       2.566288        69.8322 
 116   0.0000       2.593169        70.5637 
 117   0.0000       2.598403        70.7061 
 118   0.0000       2.665966        72.5446 
 119   0.0000       2.673500        72.7496 
 120   0.0000       2.686094        73.0923 
 121   0.0000       2.708726        73.7082 
 122   0.0000       2.741172        74.5911 
 123   0.0000       2.855628        77.7056 
 124   0.0000       2.899674        78.9042 
 125   0.0000       2.925065        79.5951 
 126   0.0000       2.994410        81.4820 
 127   0.0000       3.091174        84.1151 
 128   0.0000       3.106381        84.5289 
 129   0.0000       3.132941        85.2517 
 130   0.0000       3.192698        86.8777 
 131   0.0000       3.269747        88.9744 
 132   0.0000       3.364712        91.5585 
 133   0.0000       3.450181        93.8842 
 134   0.0000       3.535737        96.2123 
 135   0.0000       3.619261        98.4851 
 136   0.0000       3.735105       101.6374 

                    ********************************
                    * MULLIKEN POPULATION ANALYSIS *
                    ********************************

-----------------------
MULLIKEN ATOMIC CHARGES
-----------------------
   0 C :   -0.065199
   1 C :    0.162535
   2 N :    0.050703
   3 C :    0.187786
   4 N :   -0.010475
   5 C :    0.174604
   6 O :   -0.209504
   7 O :   -0.220892
   8 H :    0.105833
   9 H :    0.270363
  10 H :    0.209783
  11 H :    0.073970
  12 H :    0.270492
Sum of atomic charges:    1.0000000

--------------------------------
MULLIKEN REDUCED ORBITAL CHARGES
--------------------------------
  0 C s       :     3.252848  s :     3.252848
      pz      :     0.946206  p :     2.781453
      px      :     0.957083
      py      :     0.878164
      dz2     :     0.002795  d :     0.030897
      dxz     :     0.001902
      dyz     :     0.006389
      dx2y2   :     0.009073
      dxy     :     0.010738
  1 C s       :     3.070470  s :     3.070470
      pz      :     0.987990  p :     2.720329
      px      :     0.767641
      py      :     0.964698
      dz2     :     0.003951  d :     0.046666
      dxz     :     0.004093
      dyz     :     0.007444
      dx2y2   :     0.013653
      dxy     :     0.017525
  2 N s       :     3.277589  s :     3.277589
      pz      :     1.271651  p :     3.646003
      px      :     1.142837
      py      :     1.231516
      dz2     :     0.003335  d :     0.025704
      dxz     :     0.005107
      dyz     :     0.005066
      dx2y2   :     0.005065
      dxy     :     0.007130
  3 C s       :     2.988266  s :     2.988266
      pz      :     0.862215  p :     2.686435
      px      :     0.881363
      py      :     0.942858
      dz2     :     0.007738  d :     0.137513
      dxz     :     0.017805
      dyz     :     0.022999
      dx2y2   :     0.048012
      dxy     :     0.040959
  4 N s       :     3.318432  s :     3.318432
      pz      :     1.551155  p :     3.672177
      px      :     1.102255
      py      :     1.018767
      dz2     :     0.002248  d :     0.019866
      dxz     :     0.001981
      dyz     :     0.003157
      dx2y2   :     0.007191
      dxy     :     0.005289
  5 C s       :     2.993239  s :     2.993239
      pz      :     0.821054  p :     2.714921
      px      :     0.976396
      py      :     0.917471
      dz2     :     0.006702  d :     0.117236
      dxz     :     0.010588
      dyz     :     0.022706
      dx2y2   :     0.026399
      dxy     :     0.050841
  6 O s       :     3.733875  s :     3.733875
      pz      :     1.400408  p :     4.456820
      px      :     1.451640
      py      :     1.604772
      dz2     :     0.002170  d :     0.018808
      dxz     :     0.004413
      dyz     :     0.001687
      dx2y2   :     0.004346
      dxy     :     0.006192
  7 O s       :     3.723263  s :     3.723263
      pz      :     1.367202  p :     4.480038
      px      :     1.783932
      py      :     1.328904
      dz2     :     0.002039  d :     0.017591
      dxz     :     0.000083
      dyz     :     0.005556
      dx2y2   :     0.006152
      dxy     :     0.003761
  8 H s       :     0.870197  s :     0.870197
      pz      :     0.004195  p :     0.023970
      px      :     0.012807
      py      :     0.006968
  9 H s       :     0.682891  s :     0.682891
      pz      :     0.024559  p :     0.046746
      px      :     0.007471
      py      :     0.014716
 10 H s       :     0.746792  s :     0.746792
      pz      :     0.008516  p :     0.043425
      px      :     0.021750
      py      :     0.013159
 11 H s       :     0.902189  s :     0.902189
      pz      :     0.003793  p :     0.023840
      px      :     0.013758
      py      :     0.006290
 12 H s       :     0.682764  s :     0.682764
      pz      :     0.020591  p :     0.046745
      px      :     0.007145
      py      :     0.019009


                     *******************************
                     * LOEWDIN POPULATION ANALYSIS *
                     *******************************

----------------------
LOEWDIN ATOMIC CHARGES
----------------------
   0 C :   -0.008011
   1 C :    0.085732
   2 N :    0.284917
   3 C :    0.127986
   4 N :    0.083286
   5 C :    0.089421
   6 O :   -0.169126
   7 O :   -0.182807
   8 H :    0.078211
   9 H :    0.194948
  10 H :    0.145080
  11 H :    0.075724
  12 H :    0.194638

-------------------------------
LOEWDIN REDUCED ORBITAL CHARGES
-------------------------------
  0 C s       :     2.881907  s :     2.881907
      pz      :     0.935952  p :     3.041707
      px      :     1.044819
      py      :     1.060935
      dz2     :     0.007366  d :     0.084397
      dxz     :     0.003487
      dyz     :     0.012718
      dx2y2   :     0.027554
      dxy     :     0.033272
  1 C s       :     2.852412  s :     2.852412
      pz      :     0.959455  p :     2.949782
      px      :     0.916822
      py      :     1.073505
      dz2     :     0.008970  d :     0.112074
      dxz     :     0.007340
      dyz     :     0.013868
      dx2y2   :     0.036816
      dxy     :     0.045080
  2 N s       :     2.993127  s :     2.993127
      pz      :     1.246878  p :     3.656776
      px      :     1.197720
      py      :     1.212177
      dz2     :     0.009447  d :     0.065180
      dxz     :     0.009603
      dyz     :     0.013738
      dx2y2   :     0.013669
      dxy     :     0.018724
  3 C s       :     2.792912  s :     2.792912
      pz      :     0.848026  p :     2.779006
      px      :     0.956788
      py      :     0.974192
      dz2     :     0.017178  d :     0.300095
      dxz     :     0.033379
      dyz     :     0.042596
      dx2y2   :     0.109645
      dxy     :     0.097298
  4 N s       :     3.037566  s :     3.037566
      pz      :     1.482951  p :     3.822781
      px      :     1.186821
      py      :     1.153008
      dz2     :     0.005551  d :     0.056367
      dxz     :     0.003711
      dyz     :     0.006308
      dx2y2   :     0.021877
      dxy     :     0.018920
  5 C s       :     2.825054  s :     2.825054
      pz      :     0.817949  p :     2.819469
      px      :     0.986885
      py      :     1.014635
      dz2     :     0.015594  d :     0.266056
      dxz     :     0.021463
      dyz     :     0.042713
      dx2y2   :     0.064452
      dxy     :     0.121834
  6 O s       :     3.543701  s :     3.543701
      pz      :     1.397924  p :     4.593461
      px      :     1.541268
      py      :     1.654269
      dz2     :     0.004578  d :     0.031965
      dxz     :     0.005411
      dyz     :     0.002205
      dx2y2   :     0.007236
      dxy     :     0.012534
  7 O s       :     3.548647  s :     3.548647
      pz      :     1.364382  p :     4.604179
      px      :     1.787157
      py      :     1.452640
      dz2     :     0.004241  d :     0.029982
      dxz     :     0.000110
      dyz     :     0.006872
      dx2y2   :     0.012746
      dxy     :     0.006012
  8 H s       :     0.848373  s :     0.848373
      pz      :     0.013898  p :     0.073417
      px      :     0.039371
      py      :     0.020147
  9 H s       :     0.689586  s :     0.689586
      pz      :     0.057144  p :     0.115466
      px      :     0.019673
      py      :     0.038649
 10 H s       :     0.731767  s :     0.731767
      pz      :     0.031428  p :     0.123153
      px      :     0.058083
      py      :     0.033642
 11 H s       :     0.853324  s :     0.853324
      pz      :     0.012726  p :     0.070952
      px      :     0.040636
      py      :     0.017590
 12 H s       :     0.689881  s :     0.689881
      pz      :     0.047236  p :     0.115481
      px      :     0.018709
      py      :     0.049536


                      *****************************
                      * MAYER POPULATION ANALYSIS *
                      *****************************

  NA   - Mulliken gross atomic population
  ZA   - Total nuclear charge
  QA   - Mulliken gross atomic charge
  VA   - Mayer's total valence
  BVA  - Mayer's bonded valence
  FA   - Mayer's free valence

  ATOM       NA         ZA         QA         VA         BVA        FA
  0 C      6.0652     6.0000    -0.0652     3.8852     3.8852    -0.0000
  1 C      5.8375     6.0000     0.1625     3.8225     3.8225    -0.0000
  2 N      6.9493     7.0000     0.0507     3.5952     3.5952    -0.0000
  3 C      5.8122     6.0000     0.1878     4.3935     4.3935    -0.0000
  4 N      7.0105     7.0000    -0.0105     3.2642     3.2642     0.0000
  5 C      5.8254     6.0000     0.1746     4.3140     4.3140    -0.0000
  6 O      8.2095     8.0000    -0.2095     2.3048     2.3048    -0.0000
  7 O      8.2209     8.0000    -0.2209     2.2806     2.2806    -0.0000
  8 H      0.8942     1.0000     0.1058     0.9853     0.9853     0.0000
  9 H      0.7296     1.0000     0.2704     0.9387     0.9387     0.0000
 10 H      0.7902     1.0000     0.2098     0.9887     0.9887     0.0000
 11 H      0.9260     1.0000     0.0740     1.0036     1.0036     0.0000
 12 H      0.7295     1.0000     0.2705     0.9388     0.9388     0.0000

  Mayer bond orders larger than 0.100000
B(  0-C ,  1-C ) :   1.8300 B(  0-C ,  5-C ) :   1.0066 B(  0-C , 11-H ) :   0.9699 
B(  1-C ,  2-N ) :   0.9452 B(  1-C ,  8-H ) :   0.9523 B(  2-N ,  3-C ) :   0.9122 
B(  2-N ,  9-H ) :   0.8638 B(  2-N , 12-H ) :   0.8636 B(  3-C ,  4-N ) :   1.2121 
B(  3-C ,  6-O ) :   2.1562 B(  4-N ,  5-C ) :   1.0917 B(  4-N , 10-H ) :   0.8725 
B(  5-C ,  7-O ) :   2.1134 

-------
TIMINGS
-------

Total SCF time: 0 days 0 hours 0 min 23 sec 

Total time                  ....      23.567 sec
Sum of individual times     ....      23.369 sec  ( 99.2%)

Fock matrix formation       ....      22.676 sec  ( 96.2%)
  XC integration            ....       1.814 sec  (  8.0% of F)
    Basis function eval.    ....       0.579 sec  ( 31.9% of XC)
    Density eval.           ....       0.459 sec  ( 25.3% of XC)
    XC-Functional eval.     ....       0.083 sec  (  4.6% of XC)
    XC-Potential eval.      ....       0.555 sec  ( 30.6% of XC)
Diagonalization             ....       0.011 sec  (  0.0%)
Density matrix formation    ....       0.002 sec  (  0.0%)
Population analysis         ....       0.004 sec  (  0.0%)
Initial guess               ....       0.183 sec  (  0.8%)
Orbital Transformation      ....       0.000 sec  (  0.0%)
Orbital Orthonormalization  ....       0.000 sec  (  0.0%)
DIIS solution               ....       0.005 sec  (  0.0%)
SOSCF solution              ....       0.010 sec  (  0.0%)
Grid generation             ....       0.478 sec  (  2.0%)

-------------------------   --------------------
FINAL SINGLE POINT ENERGY      -414.696243516391
-------------------------   --------------------

------------------------------------------------------------------------------
                         ORCA SCF GRADIENT CALCULATION
------------------------------------------------------------------------------

Gradient of the Kohn-Sham DFT energy:
Kohn-Sham wavefunction type      ... RKS
Hartree-Fock exchange scaling    ...    0.200
Number of operators              ...    1
Number of atoms                  ...   13
Basis set dimensions             ...  137
Integral neglect threshold       ... 2.5e-11
Integral primitive cutoff        ... 2.5e-12

Nuclear repulsion gradient       ... done
One Electron Gradient            ... done
Pre-screening matrix             ... done
Starting the two electron gradient:
Two electron gradient done
Exchange-correlation gradient    ... done

------------------
CARTESIAN GRADIENT
------------------

   1   C   :    0.006703873    0.009011387   -0.000300475
   2   C   :   -0.043571937   -0.023916330    0.000952962
   3   N   :   -0.020402962    0.027166087   -0.003225269
   4   C   :    0.079858875    0.000118764    0.002456634
   5   N   :    0.005163381    0.015525510   -0.001309133
   6   C   :   -0.036096985   -0.035802867    0.001329850
   7   O   :    0.004446428   -0.019135047    0.001976663
   8   O   :    0.008200200    0.007591868   -0.000090173
   9   H   :    0.006713175    0.009318995   -0.000760669
  10   H   :   -0.008703974    0.004674928   -0.010194495
  11   H   :    0.009827767   -0.001521893    0.000602485
  12   H   :   -0.002860322    0.000387770   -0.000136489
  13   H   :   -0.009277519    0.006580828    0.008698108

Difference to translation invariance:
           :    0.0000000000    0.0000000000   -0.0000000000

Norm of the cartesian gradient     ...    0.1190094049
RMS gradient                       ...    0.0190567563
MAX gradient                       ...    0.0798588751

-------
TIMINGS
-------

Total SCF gradient time            ...        7.997 sec

One electron gradient       ....       0.062 sec  (  0.8%)
Prescreening matrices       ....       0.047 sec  (  0.6%)
Two electron gradient       ....       5.364 sec  ( 67.1%)
XC gradient                 ....       2.097 sec  ( 26.2%)
CPCM gradient               ....       0.330 sec  (  4.1%)
   A-Matrix (El+Nuc)        ....       0.002 sec  (  0.0%)
   Potential                ....       0.328 sec  (  4.1%)
------------------------------------------------------------------------------
                         ORCA GEOMETRY RELAXATION STEP
------------------------------------------------------------------------------

Reading the OPT-File                    .... done
Getting information on internals        .... done
Copying old internal coords+grads       .... done
Making the new internal coordinates     .... (new redundants).... done
Validating the new internal coordinates .... (new redundants).... done
Calculating the B-matrix                .... done
Calculating the G,G- and P matrices     .... done
Transforming gradient to internals      .... done
Projecting the internal gradient        .... done
Number of atoms                         ....  13
Number of internal coordinates          ....  62
Current Energy                          ....  -414.696243516 Eh
Current gradient norm                   ....     0.119009405 Eh/bohr
Maximum allowed component of the step   ....  0.300
Current trust radius                    ....  0.300
Evaluating the initial hessian          ....  (Almloef) done
Projecting the Hessian                  .... done
Forming the augmented Hessian           .... done
Diagonalizing the augmented Hessian     .... done
Last element of RFO vector              ....  0.979229654
Lowest eigenvalues of augmented Hessian:
 -0.021003347  0.021607749  0.023793775  0.027363036  0.028443730
Length of the computed step             ....  0.207054849
The final length of the internal step   ....  0.207054849
Converting the step to cartesian space:
 Initial RMS(Int)=    0.0262959921
Transforming coordinates:
 Iter   0:  RMS(Cart)=    0.0491858285 RMS(Int)=    0.7982567386
 Iter   1:  RMS(Cart)=    0.0008891968 RMS(Int)=    0.0005998401
 Iter   2:  RMS(Cart)=    0.0000325639 RMS(Int)=    0.0000167842
 Iter   3:  RMS(Cart)=    0.0000013274 RMS(Int)=    0.0000011190
 Iter   4:  RMS(Cart)=    0.0000000672 RMS(Int)=    0.0000000394
done
Storing new coordinates                 .... done

                                .--------------------.
          ----------------------|Geometry convergence|-------------------------
          Item                value                   Tolerance       Converged
          ---------------------------------------------------------------------
          RMS gradient        0.0131939754            0.0001000000      NO
          MAX gradient        0.0699109226            0.0003000000      NO
          RMS step            0.0262959921            0.0020000000      NO
          MAX step            0.1278305287            0.0040000000      NO
          ........................................................
          Max(Bonds)      0.0676      Max(Angles)    4.04
          Max(Dihed)        0.89      Max(Improp)    0.00
          ---------------------------------------------------------------------

The optimization has not yet converged - more geometry cycles are needed


    ---------------------------------------------------------------------------
                         Redundant Internal Coordinates
                            (Angstroem and degrees)

        Definition                    Value    dE/dq     Step     New-Value
    ----------------------------------------------------------------------------
     1. B(C   1,C   0)                1.3353  0.001367 -0.0014    1.3339   
     2. B(N   2,C   1)                1.4074 -0.032530  0.0313    1.4387   
     3. B(C   3,N   2)                1.4048 -0.069911  0.0676    1.4725   
     4. B(N   4,C   3)                1.3472 -0.007046  0.0061    1.3533   
     5. B(C   5,N   4)                1.3577 -0.037002  0.0303    1.3880   
     6. B(C   5,C   0)                1.4734 -0.007827  0.0080    1.4814   
     7. B(O   6,C   3)                1.2122  0.006617 -0.0032    1.2090   
     8. B(O   7,C   5)                1.2205  0.008203 -0.0041    1.2164   
     9. B(H   8,C   1)                1.0908  0.000362 -0.0005    1.0903   
    10. B(H   9,N   2)                1.0292 -0.009228  0.0115    1.0407   
    11. B(H  10,N   4)                1.0122 -0.009025  0.0106    1.0228   
    12. B(H  11,C   0)                1.0861 -0.002330  0.0032    1.0893   
    13. B(H  12,N   2)                1.0291 -0.009335  0.0116    1.0408   
    14. A(C   5,C   0,H  11)          116.21  0.001033    0.00    116.21   
    15. A(C   1,C   0,H  11)          122.36  0.004555   -0.52    121.84   
    16. A(C   1,C   0,C   5)          121.43 -0.005588    0.52    121.95   
    17. A(C   0,C   1,N   2)          119.57 -0.002421    0.17    119.74   
    18. A(C   0,C   1,H   8)          119.85 -0.010653    1.74    121.59   
    19. A(N   2,C   1,H   8)          120.58  0.013074   -1.90    118.68   
    20. A(C   3,N   2,H   9)          102.77 -0.006628    1.48    104.25   
    21. A(C   1,N   2,H   9)          114.78  0.008210   -1.76    113.02   
    22. A(C   3,N   2,H  12)          102.81 -0.006678    1.49    104.31   
    23. A(C   1,N   2,H  12)          114.90  0.008290   -1.78    113.11   
    24. A(C   1,N   2,C   3)          119.31 -0.001979    0.41    119.72   
    25. A(H   9,N   2,H  12)           99.64 -0.003596    0.66    100.30   
    26. A(N   2,C   3,O   6)          112.25 -0.033711    4.04    116.28   
    27. A(N   2,C   3,N   4)          120.19  0.024793   -3.03    117.16   
    28. A(N   4,C   3,O   6)          127.56  0.008918   -1.00    126.55   
    29. A(C   3,N   4,H  10)          119.14  0.010887   -1.55    117.59   
    30. A(C   3,N   4,C   5)          123.20 -0.013730    1.90    125.10   
    31. A(C   5,N   4,H  10)          117.65  0.002839   -0.35    117.30   
    32. A(C   0,C   5,N   4)          116.29 -0.001076    0.03    116.32   
    33. A(N   4,C   5,O   7)          122.82  0.009276   -1.06    121.77   
    34. A(C   0,C   5,O   7)          120.89 -0.008200    1.02    121.91   
    35. D(N   2,C   1,C   0,C   5)     -0.13 -0.000110    0.09     -0.04   
    36. D(H   8,C   1,C   0,C   5)    179.95 -0.000103    0.06    180.02   
    37. D(H   8,C   1,C   0,H  11)     -0.05 -0.000061    0.02     -0.03   
    38. D(N   2,C   1,C   0,H  11)    179.87 -0.000068    0.05    179.91   
    39. D(C   3,N   2,C   1,H   8)   -179.40 -0.000014   -0.01   -179.41   
    40. D(H   9,N   2,C   1,C   0)   -121.88  0.003606   -0.89   -122.77   
    41. D(H  12,N   2,C   1,C   0)    123.43 -0.003573    0.80    124.23   
    42. D(C   3,N   2,C   1,C   0)      0.69  0.000014   -0.04      0.64   
    43. D(H   9,N   2,C   1,H   8)     58.04  0.003578   -0.86     57.17   
    44. D(H  12,N   2,C   1,H   8)    -56.65 -0.003601    0.83    -55.82   
    45. D(O   6,C   3,N   2,C   1)    179.71  0.000024   -0.07    179.65   
    46. D(N   4,C   3,N   2,H   9)    127.89  0.003799   -0.78    127.11   
    47. D(N   4,C   3,N   2,C   1)     -0.43  0.000006   -0.01     -0.45   
    48. D(O   6,C   3,N   2,H   9)    -51.96  0.003817   -0.83    -52.80   
    49. D(N   4,C   3,N   2,H  12)   -128.95 -0.003837    0.77   -128.18   
    50. D(O   6,C   3,N   2,H  12)     51.20 -0.003818    0.72     51.91   
    51. D(H  10,N   4,C   3,O   6)      0.30  0.000036   -0.07      0.23   
    52. D(H  10,N   4,C   3,N   2)   -179.52  0.000120   -0.14   -179.66   
    53. D(C   5,N   4,C   3,O   6)    179.40 -0.000174    0.11    179.50   
    54. D(C   5,N   4,C   3,N   2)     -0.43 -0.000091    0.04     -0.39   
    55. D(O   7,C   5,N   4,H  10)      0.10 -0.000018   -0.02      0.08   
    56. D(C   0,C   5,N   4,H  10)   -179.94 -0.000187    0.18   -179.76   
    57. D(C   0,C   5,N   4,C   3)      0.96 -0.000051    0.01      0.97   
    58. D(O   7,C   5,C   0,H  11)     -0.71 -0.000158    0.17     -0.54   
    59. D(O   7,C   5,C   0,C   1)    179.29 -0.000118    0.13    179.42   
    60. D(O   7,C   5,N   4,C   3)   -179.01  0.000118   -0.18   -179.19   
    61. D(N   4,C   5,C   0,H  11)    179.33  0.000001   -0.02    179.31   
    62. D(N   4,C   5,C   0,C   1)     -0.67  0.000041   -0.06     -0.74   
    ----------------------------------------------------------------------------

         *************************************************************
         *                GEOMETRY OPTIMIZATION CYCLE   2            *
         *************************************************************
---------------------------------
CARTESIAN COORDINATES (ANGSTROEM)
---------------------------------
  C      1.357057    0.521213   -0.017176
  C      1.274513   -0.805378    0.093192
  N     -0.016384   -1.439835    0.118406
  C     -1.234888   -0.620492    0.007827
  N     -1.071565    0.718281   -0.105157
  C      0.151001    1.375528   -0.116891
  O     -2.285547   -1.218302    0.029337
  O      0.226314    2.586208   -0.207138
  H      2.165729   -1.429087    0.166480
  H     -0.170616   -2.014487    0.972231
  H     -1.914078    1.293663   -0.177041
  H      2.315911    1.037742   -0.038320
  H     -0.128107   -2.167584   -0.617190

----------------------------
CARTESIAN COORDINATES (A.U.)
----------------------------
  NO LB      ZA    FRAG     MASS         X           Y           Z
   0 C     6.0000    0    12.011    2.564467    0.984949   -0.032458
   1 C     6.0000    0    12.011    2.408481   -1.521944    0.176107
   2 N     7.0000    0    14.007   -0.030960   -2.720893    0.223755
   3 C     6.0000    0    12.011   -2.333601   -1.172560    0.014790
   4 N     7.0000    0    14.007   -2.024965    1.357354   -0.198717
   5 C     6.0000    0    12.011    0.285350    2.599371   -0.220892
   6 O     8.0000    0    15.999   -4.319058   -2.302256    0.055439
   7 O     8.0000    0    15.999    0.427672    4.887226   -0.391433
   8 H     1.0000    0     1.008    4.092634   -2.700583    0.314602
   9 H     1.0000    0     1.008   -0.322417   -3.806828    1.837251
  10 H     1.0000    0     1.008   -3.617084    2.444669   -0.334559
  11 H     1.0000    0     1.008    4.376437    1.961047   -0.072415
  12 H     1.0000    0     1.008   -0.242086   -4.096141   -1.166321

--------------------------------
INTERNAL COORDINATES (ANGSTROEM)
--------------------------------
 C      0   0   0     0.000000000000     0.00000000     0.00000000
 C      1   0   0     1.333730725241     0.00000000     0.00000000
 N      2   1   0     1.438605701822   119.71238666     0.00000000
 C      3   2   1     1.472516295774   119.72409594     0.64473368
 N      4   3   2     1.353422643826   117.18156929   359.55230264
 C      5   4   3     1.388084501917   125.12466868   359.60639044
 O      4   3   2     1.209017098004   116.27289852   179.64621704
 O      6   5   4     1.216373293942   121.76501415   180.81048022
 H      2   1   3     1.090251723439   121.60007663   180.05581454
 H      3   2   1     1.040687514882   113.00996401   237.24290558
 H      5   4   3     1.022771253461   117.57723674   180.33700641
 H      1   2   3     1.089334158705   121.85108883   179.91284931
 H      3   2   1     1.040770473484   113.09879541   124.21371478

---------------------------
INTERNAL COORDINATES (A.U.)
---------------------------
 C      0   0   0     0.000000000000     0.00000000     0.00000000
 C      1   0   0     2.520385807102     0.00000000     0.00000000
 N      2   1   0     2.718570791140   119.71238666     0.00000000
 C      3   2   1     2.782652526750   119.72409594     0.64473368
 N      4   3   2     2.557598140279   117.18156929   359.55230264
 C      5   4   3     2.623099559364   125.12466868   359.60639044
 O      4   3   2     2.284711206456   116.27289852   179.64621704
 O      6   5   4     2.298612402166   121.76501415   180.81048022
 H      2   1   3     2.060277174336   121.60007663   180.05581454
 H      3   2   1     1.966614394119   113.00996401   237.24290558
 H      5   4   3     1.932757566689   117.57723674   180.33700641
 H      1   2   3     2.058543228277   121.85108883   179.91284931
 H      3   2   1     1.966771163156   113.09879541   124.21371478


Diagonalization of the overlap matrix:
Smallest eigenvalue                        ... 1.287e-03
Time for diagonalization                   ...    0.001 sec
Threshold for overlap eigenvalues          ... 1.000e-08
Number of eigenvalues below threshold      ... 0
Time for construction of square roots      ...    0.002 sec
Total time needed                          ...    0.003 sec

-------------------
DFT GRID GENERATION
-------------------

General Integration Accuracy     IntAcc      ...  4.340
Radial Grid Type                 RadialGrid  ... Gauss-Chebyshev
Angular Grid (max. acc.)         AngularGrid ... Lebedev-110
Angular grid pruning method      GridPruning ... 3 (G Style)
Weight generation scheme         WeightScheme... Becke
Basis function cutoff            BFCut       ...    1.0000e-11
Integration weight cutoff        WCut        ...    1.0000e-14
Grids for H and He will be reduced by one unit

# of grid points (after initial pruning)     ...  17430 (   0.0 sec)
# of grid points (after weights+screening)   ...  16319 (   0.0 sec)
nearest neighbour list constructed           ...    0.0 sec
Grid point re-assignment to atoms done       ...    0.0 sec
Grid point division into batches done        ...    0.0 sec
Reduced shell lists constructed in    0.1 sec

Total number of grid points                  ...    16319
Total number of batches                      ...      261
Average number of points per batch           ...       62
Average number of grid points per atom       ...     1255
Average number of shells per batch           ...    46.71 (74.14%)
Average number of basis functions per batch  ...   101.73 (74.25%)
Average number of large shells per batch     ...    37.44 (80.16%)
Average number of large basis fcns per batch ...    79.77 (78.42%)
Maximum spatial batch extension              ...  18.88, 20.40, 25.60 au
Average spatial batch extension              ...   3.74,  3.50,  4.31 au

Time for grid setup =    0.081 sec


--------------------
CPCM SOLVATION MODEL
--------------------
CPCM parameters:
  Epsilon                                         ...      80.4000
  Refrac                                          ...       1.3300
  Rsolv                                           ...       1.3000
  Surface type                                    ...    GEPOL SES
  Epsilon function type                           ...         CPCM
Radii:
 Radius for C  used is    3.7795 Bohr (=   2.0000 Ang.)
 Radius for N  used is    3.4582 Bohr (=   1.8300 Ang.)
 Radius for O  used is    3.2503 Bohr (=   1.7200 Ang.)
 Radius for H  used is    2.4566 Bohr (=   1.3000 Ang.)
Calculating surface                               ...        done! (  0.0s)
GEPOL surface points                              ...          412
GEPOL Volume                                      ...     818.7212
GEPOL Surface-area                                ...     489.3942
Calculating surface distance matrix               ...        done! (  0.0s)
Performing Cholesky decomposition & store         ...        done! (  0.0s)
Overall time for CPCM initialization              ...                 0.0s
--------------
SCF ITERATIONS
--------------
ITER       Energy         Delta-E        Max-DP      RMS-DP      [F,P]     Damp
               ***  Starting incremental Fock matrix formation  ***
  0   -414.7050742945   0.000000000000 0.00778484  0.00033600  0.0230944 0.7000
                      *** Initiating the SOSCF procedure ***
                      *** Re-Reading the Fockian *** 
                      *** Removing any level shift *** 
ITER      Energy       Delta-E        Grad      Rot      Max-DP    RMS-DP
  1   -414.70657327  -0.0014989715  0.002145  0.002145  0.024329  0.000926
               *** Restarting incremental Fock matrix formation ***
  2   -414.71011622  -0.0035429501  0.002392  0.006023  0.011468  0.000373
  3   -414.70979422   0.0003219996  0.005632  0.004820  0.009705  0.000250
  4   -414.71031275  -0.0005185304  0.000674  0.001071  0.003097  0.000075
  5   -414.71030511   0.0000076357  0.001086  0.000641  0.001957  0.000042
  6   -414.71032101  -0.0000158992  0.000077  0.000318  0.000341  0.000013
  7   -414.71032074   0.0000002738  0.000112  0.000178  0.000218  0.000008
  8   -414.71032123  -0.0000004919  0.000019  0.000047  0.000092  0.000003
  9   -414.71032122   0.0000000065  0.000027  0.000032  0.000055  0.000002
 10   -414.71032124  -0.0000000169  0.000004  0.000013  0.000027  0.000001
 11   -414.71032124  -0.0000000001  0.000005  0.000007  0.000015  0.000000
                  ***Gradient check signals convergence***
              ***Rediagonalizing the Fockian in SOSCF/NRSCF***

               *****************************************************
               *                     SUCCESS                       *
               *           SCF CONVERGED AFTER  12 CYCLES          *
               *****************************************************

Setting up the final grid:

General Integration Accuracy     IntAcc      ...  4.670
Radial Grid Type                 RadialGrid  ... Gauss-Chebyshev
Angular Grid (max. acc.)         AngularGrid ... Lebedev-302
Angular grid pruning method      GridPruning ... 3 (G Style)
Weight generation scheme         WeightScheme... Becke
Basis function cutoff            BFCut       ...    1.0000e-11
Integration weight cutoff        WCut        ...    1.0000e-14
Grids for H and He will be reduced by one unit

# of grid points (after initial pruning)     ...  66666 (   0.0 sec)
# of grid points (after weights+screening)   ...  61637 (   0.0 sec)
nearest neighbour list constructed           ...    0.0 sec
Grid point re-assignment to atoms done       ...    0.0 sec
Grid point division into batches done        ...    0.2 sec
Reduced shell lists constructed in    0.3 sec

Total number of grid points                  ...    61637
Total number of batches                      ...      969
Average number of points per batch           ...       63
Average number of grid points per atom       ...     4741
Average number of shells per batch           ...    42.95 (68.17%)
Average number of basis functions per batch  ...    92.86 (67.78%)
Average number of large shells per batch     ...    33.65 (78.34%)
Average number of large basis fcns per batch ...    71.06 (76.52%)
Maximum spatial batch extension              ...  18.59, 18.85, 20.17 au
Average spatial batch extension              ...   2.56,  2.51,  2.72 au

Final grid set up in    0.4 sec
Final integration                            ... done (   0.4 sec)
Change in XC energy                          ...    -0.000102958
Integrated number of electrons               ...    58.000007192
Previous integrated no of electrons          ...    57.998286884
Total Energy       :         -414.71042420 Eh          -11284.84435 eV
  Last Energy change         ...   -2.8302e-10  Tolerance :   1.0000e-08
  Last MAX-Density change    ...    2.7914e-06  Tolerance :   1.0000e-07
             **** THE GBW FILE WAS UPDATED (Uracil_1.gbw) ****
             **** DENSITY FILE WAS UPDATED (Uracil_1.scfp) ****
             **** ENERGY FILE WAS UPDATED (Uracil_1.en.tmp) ****
             **** THE GBW FILE WAS UPDATED (Uracil_1.gbw) ****
             **** DENSITY FILE WAS UPDATED (Uracil_1.scfp) ****
Total SCF time: 0 days 0 hours 0 min 20 sec 

-------------------------   --------------------
FINAL SINGLE POINT ENERGY      -414.710424197326
-------------------------   --------------------

------------------------------------------------------------------------------
                         ORCA SCF GRADIENT CALCULATION
------------------------------------------------------------------------------

Gradient of the Kohn-Sham DFT energy:
Kohn-Sham wavefunction type      ... RKS
Hartree-Fock exchange scaling    ...    0.200
Number of operators              ...    1
Number of atoms                  ...   13
Basis set dimensions             ...  137
Integral neglect threshold       ... 2.5e-11
Integral primitive cutoff        ... 2.5e-12

Nuclear repulsion gradient       ... done
One Electron Gradient            ... done
Pre-screening matrix             ... done
Starting the two electron gradient:
Two electron gradient done
Exchange-correlation gradient    ... done

------------------
CARTESIAN GRADIENT
------------------

   1   C   :    0.008245047    0.004067656   -0.000086415
   2   C   :   -0.017559620   -0.014713095    0.000799450
   3   N   :    0.001374581    0.016807909   -0.001543378
   4   C   :    0.043808943    0.002982425    0.001167518
   5   N   :   -0.004090069    0.007104677   -0.001114116
   6   C   :   -0.016906358   -0.018926409    0.001186783
   7   O   :   -0.013554021   -0.010010687    0.000572847
   8   O   :    0.005560876    0.007178848   -0.000362702
   9   H   :    0.005118870    0.007403209   -0.000584120
  10   H   :   -0.005923128   -0.002436512   -0.001299629
  11   H   :    0.000774069    0.001968405    0.000005938
  12   H   :   -0.000861161    0.000757273   -0.000132284
  13   H   :   -0.005988029   -0.002183699    0.001390107

Difference to translation invariance:
           :    0.0000000000    0.0000000000   -0.0000000000

Norm of the cartesian gradient     ...    0.0638702178
RMS gradient                       ...    0.0102274201
MAX gradient                       ...    0.0438089432

-------
TIMINGS
-------

Total SCF gradient time            ...        8.311 sec

One electron gradient       ....       0.045 sec  (  0.5%)
Prescreening matrices       ....       0.044 sec  (  0.5%)
Two electron gradient       ....       5.735 sec  ( 69.0%)
XC gradient                 ....       2.057 sec  ( 24.8%)
CPCM gradient               ....       0.333 sec  (  4.0%)
   A-Matrix (El+Nuc)        ....       0.003 sec  (  0.0%)
   Potential                ....       0.330 sec  (  4.0%)
------------------------------------------------------------------------------
                         ORCA GEOMETRY RELAXATION STEP
------------------------------------------------------------------------------

Reading the OPT-File                    .... done
Getting information on internals        .... done
Copying old internal coords+grads       .... done
Making the new internal coordinates     .... (new redundants).... done
Validating the new internal coordinates .... (new redundants).... done
Calculating the B-matrix                .... done
Calculating the G,G- and P matrices     .... done
Transforming gradient to internals      .... done
Projecting the internal gradient        .... done
Number of atoms                         ....  13
Number of internal coordinates          ....  62
Current Energy                          ....  -414.710424197 Eh
Current gradient norm                   ....     0.063870218 Eh/bohr
Maximum allowed component of the step   ....  0.300
Current trust radius                    ....  0.300
Updating the Hessian (BFGS)             .... done
Forming the augmented Hessian           .... done
Diagonalizing the augmented Hessian     .... done
Last element of RFO vector              ....  0.989849651
Lowest eigenvalues of augmented Hessian:
 -0.005418687  0.021607665  0.023794681  0.027364302  0.028443621
Length of the computed step             ....  0.143575844
The final length of the internal step   ....  0.143575844
Converting the step to cartesian space:
 Initial RMS(Int)=    0.0182341505
Transforming coordinates:
 Iter   0:  RMS(Cart)=    0.0267887635 RMS(Int)=    0.0182023711
 Iter   1:  RMS(Cart)=    0.0005272468 RMS(Int)=    0.0003522872
 Iter   2:  RMS(Cart)=    0.0000135966 RMS(Int)=    0.0000090030
 Iter   3:  RMS(Cart)=    0.0000005471 RMS(Int)=    0.0000004214
 Iter   4:  RMS(Cart)=    0.0000000181 RMS(Int)=    0.0000000119
done
Storing new coordinates                 .... done

                                .--------------------.
          ----------------------|Geometry convergence|-------------------------
          Item                value                   Tolerance       Converged
          ---------------------------------------------------------------------
          Energy change      -0.0141806809            0.0000050000      NO
          RMS gradient        0.0051471102            0.0001000000      NO
          MAX gradient        0.0192014580            0.0003000000      NO
          RMS step            0.0182341505            0.0020000000      NO
          MAX step            0.0635121810            0.0040000000      NO
          ........................................................
          Max(Bonds)      0.0336      Max(Angles)    2.50
          Max(Dihed)        1.10      Max(Improp)    0.00
          ---------------------------------------------------------------------

The optimization has not yet converged - more geometry cycles are needed


    ---------------------------------------------------------------------------
                         Redundant Internal Coordinates
                            (Angstroem and degrees)

        Definition                    Value    dE/dq     Step     New-Value
    ----------------------------------------------------------------------------
     1. B(C   1,C   0)                1.3337  0.002086 -0.0025    1.3313   
     2. B(N   2,C   1)                1.4386 -0.009648  0.0167    1.4553   
     3. B(C   3,N   2)                1.4725 -0.019201  0.0336    1.5061   
     4. B(N   4,C   3)                1.3534 -0.001043  0.0020    1.3554   
     5. B(C   5,N   4)                1.3881 -0.011503  0.0167    1.4048   
     6. B(C   5,C   0)                1.4813  0.000691 -0.0008    1.4805   
     7. B(O   6,C   3)                1.2090  0.016739 -0.0124    1.1966   
     8. B(O   7,C   5)                1.2164  0.007516 -0.0060    1.2104   
     9. B(H   8,C   1)                1.0903 -0.000090  0.0002    1.0904   
    10. B(H   9,N   2)                1.0407  0.001164 -0.0014    1.0393   
    11. B(H  10,N   4)                1.0228  0.000469 -0.0001    1.0227   
    12. B(H  11,C   0)                1.0893 -0.000396  0.0011    1.0904   
    13. B(H  12,N   2)                1.0408  0.001180 -0.0014    1.0393   
    14. A(C   5,C   0,H  11)          116.22 -0.000155    0.11    116.33   
    15. A(C   1,C   0,H  11)          121.85  0.002084   -0.45    121.40   
    16. A(C   1,C   0,C   5)          121.93 -0.001929    0.34    122.26   
    17. A(C   0,C   1,N   2)          119.71 -0.001708    0.34    120.05   
    18. A(C   0,C   1,H   8)          121.60 -0.008441    2.16    123.76   
    19. A(N   2,C   1,H   8)          118.69  0.010149   -2.50    116.19   
    20. A(C   3,N   2,H   9)          104.25 -0.003490    1.23    105.49   
    21. A(C   1,N   2,H   9)          113.01  0.004783   -1.71    111.30   
    22. A(C   3,N   2,H  12)          104.31 -0.003479    1.24    105.55   
    23. A(C   1,N   2,H  12)          113.10  0.004788   -1.70    111.39   
    24. A(C   1,N   2,C   3)          119.72 -0.000991    0.22    119.95   
    25. A(H   9,N   2,H  12)          100.24 -0.002780    1.27    101.52   
    26. A(N   2,C   3,O   6)          116.27 -0.007798    1.77    118.04   
    27. A(N   2,C   3,N   4)          117.18  0.010981   -2.30    114.88   
    28. A(N   4,C   3,O   6)          126.55 -0.003183    0.53    127.07   
    29. A(C   3,N   4,H  10)          117.58  0.006528   -1.50    116.08   
    30. A(C   3,N   4,C   5)          125.12 -0.009091    2.01    127.13   
    31. A(C   5,N   4,H  10)          117.29  0.002561   -0.50    116.79   
    32. A(C   0,C   5,N   4)          116.32  0.002737   -0.61    115.72   
    33. A(N   4,C   5,O   7)          121.77  0.004496   -0.85    120.91   
    34. A(C   0,C   5,O   7)          121.91 -0.007233    1.46    123.37   
    35. D(N   2,C   1,C   0,C   5)     -0.04 -0.000047    0.01     -0.03   
[...]
     11      -0.023662  -0.204438  -0.006833  -0.016134   0.000237   0.001865
     12       0.057910  -0.004319   0.272179   0.014693  -0.121489   0.030817
     13       0.168302   0.001150  -0.080085   0.002318  -0.011544   0.048258
     14      -0.011323   0.033666   0.015670   0.003333  -0.002326  -0.003137
     15       0.112333  -0.002361   0.051269  -0.002475   0.021554  -0.035057
     16      -0.099941   0.003470   0.007646  -0.003221   0.014493  -0.006578
     17       0.012510   0.028030  -0.001391  -0.014363  -0.003114  -0.000494
     18       0.035891  -0.001192  -0.084093   0.001178  -0.005783  -0.007612
     19      -0.058235   0.004695  -0.051685  -0.004924   0.040172  -0.007679
     20       0.007273   0.042335   0.002207   0.003837  -0.003158   0.000438
     21      -0.044184   0.000743  -0.013591   0.000234  -0.002935  -0.001124
     22      -0.132915   0.000630   0.034915  -0.000431   0.003904   0.014316
     23       0.009367  -0.008985  -0.002748   0.004776   0.000639  -0.001151
     24       0.126826  -0.010124   0.156475   0.014302  -0.227021  -0.443604
     25       0.477638   0.013649   0.094583   0.057875  -0.007935  -0.523201
     26      -0.029509   0.239137   0.013309   0.634776   0.139051   0.034961
     27       0.169502  -0.045181   0.207634  -0.007449   0.398998   0.256983
     28      -0.171833  -0.509252   0.203940  -0.048638   0.030225  -0.046576
     29       0.057397  -0.142484  -0.052861  -0.013759  -0.005200   0.003056
     30       0.318902  -0.009768   0.432314   0.025926  -0.209961   0.089591
     31       0.544931  -0.004252   0.127910   0.016777  -0.130012   0.132938
     32      -0.037635   0.051071   0.000388  -0.002779   0.005226  -0.009006
     33      -0.024514  -0.006961  -0.409915  -0.022557   0.322315  -0.239258
     34      -0.023549   0.040462  -0.172054   0.016152  -0.586579   0.541420
     35       0.016451   0.512890  -0.005966  -0.742335  -0.112413  -0.051305
     36       0.177571   0.054215   0.210232  -0.097935   0.383164   0.259853
     37      -0.171844   0.476537   0.233175   0.033057   0.041120  -0.046805
     38      -0.018385  -0.232863   0.016073  -0.027325   0.015236   0.020183
                 24         25         26         27         28         29    
      0       0.004677   0.000034  -0.082833   0.097358  -0.109225   0.006071
      1      -0.017954   0.000482  -0.069749  -0.046894   0.091050  -0.003902
      2       0.001502   0.003844   0.003690   0.006344  -0.010335   0.000505
      3      -0.074302   0.002397   0.040538  -0.117792   0.042990  -0.013219
      4      -0.055173  -0.004994   0.008253  -0.049396   0.040850   0.019166
      5       0.002488  -0.060788   0.000005   0.001111  -0.002775  -0.002082
      6       0.049964  -0.000983  -0.141388   0.116832   0.102336   0.052688
      7      -0.005640   0.000223   0.061316   0.034081  -0.025298   0.014491
      8       0.001809   0.004705  -0.008924   0.000258   0.005003   0.000194
      9      -0.050660  -0.002323   0.159275   0.051631   0.037021   0.039991
     10       0.123685   0.006021  -0.229114  -0.108062  -0.042808  -0.044765
     11      -0.011343   0.068625   0.024369   0.011307   0.005073   0.005319
     12      -0.062415   0.000839  -0.141667  -0.011525  -0.075877   0.122404
     13      -0.112547  -0.000481   0.149386   0.022717  -0.011064   0.206821
     14       0.007523  -0.006149  -0.016828  -0.002243  -0.001300  -0.014006
     15       0.177878  -0.001457   0.288335  -0.064699   0.140814  -0.011066
     16       0.024291  -0.000299  -0.004793  -0.015046   0.008622   0.003286
     17       0.002827  -0.003646   0.008358  -0.000689   0.003088  -0.000250
     18       0.033203   0.001121  -0.051688  -0.039116  -0.019404  -0.090792
     19       0.017233  -0.000750   0.008577   0.002576   0.008017  -0.055579
     20      -0.000551  -0.010697  -0.002323  -0.001509  -0.001291   0.001839
     21      -0.014805   0.000138  -0.051015   0.006345  -0.012077  -0.017521
     22       0.009747  -0.000041  -0.012654   0.034880  -0.021323  -0.066023
     23      -0.001233   0.000613  -0.000328  -0.002691   0.001362   0.004857
     24       0.092479  -0.001648   0.305065   0.212929  -0.421328  -0.046421
     25       0.147288   0.004681   0.334148   0.366683  -0.523492  -0.012299
     26      -0.010087   0.066359  -0.022640  -0.026251   0.036001   0.000216
     27      -0.123001  -0.699761   0.367850  -0.453991  -0.441439  -0.197295
     28       0.037593   0.050995  -0.123753   0.066656   0.054579  -0.041728
     29       0.007905  -0.034518  -0.060041  -0.031724   0.000053  -0.056462
     30      -0.340080   0.001112  -0.048830   0.242815   0.060332  -0.542648
     31      -0.509234  -0.001539   0.297114   0.387544   0.185781  -0.729176
     32       0.034069  -0.017308  -0.025912  -0.026202  -0.013792   0.046464
     33      -0.321684   0.000692  -0.266905  -0.094698   0.043389   0.013041
     34       0.612924   0.001310   0.257342   0.338375  -0.217203  -0.019193
     35      -0.058390   0.057426  -0.027122  -0.030091   0.019067   0.002000
     36      -0.112965   0.697698   0.376614  -0.451042  -0.438743  -0.200073
     37       0.033649  -0.053746  -0.108096   0.071270   0.052474  -0.030480
     38      -0.020942   0.012405   0.101652  -0.006846  -0.034953   0.051835
                 30         31         32         33         34         35    
      0       0.001273   0.032610  -0.045009  -0.006831   0.065468  -0.041790
      1      -0.023917  -0.474172   0.192265  -0.001051   0.032657  -0.030830
      2       0.002029   0.041166  -0.017212  -0.000196  -0.001165   0.001598
      3       0.000547   0.082048  -0.015923   0.009833  -0.036707  -0.055407
      4       0.010658   0.487593  -0.110521  -0.017185   0.028596   0.055347
      5      -0.000738  -0.039853   0.009078   0.001956  -0.003352  -0.006098
      6      -0.012423   0.009827   0.000833   0.014785   0.000196   0.001164
      7      -0.061313  -0.049902   0.013841   0.036489   0.000330  -0.000332
      8       0.005197   0.004486  -0.001144  -0.002660  -0.000044   0.000041
      9       0.014628  -0.054199  -0.110530  -0.611473   0.000546   0.000732
     10      -0.021403   0.016236  -0.083110  -0.486942  -0.000080   0.000122
     11       0.002486  -0.003109   0.003721   0.022218   0.000023   0.000006
     12       0.004195  -0.000347   0.012240   0.054403  -0.000326   0.000194
     13       0.019176  -0.016586   0.083602   0.118264   0.000086  -0.000028
     14      -0.001531   0.001410  -0.006691  -0.008392  -0.000018   0.000004
     15       0.004650  -0.000371   0.063609   0.028964  -0.001717   0.001115
     16       0.000070  -0.117365  -0.681355   0.171837   0.000925  -0.001387
     17       0.000147   0.009649   0.057530  -0.013108  -0.000123   0.000137
     18      -0.011412   0.035791   0.072015   0.410123  -0.000027  -0.000003
     19      -0.004302   0.011362   0.037522   0.231434   0.000000  -0.000042
     20      -0.000002   0.000171  -0.000972  -0.006903  -0.000001  -0.000000
     21      -0.002942  -0.010038  -0.000171  -0.010229   0.000224  -0.000077
     22      -0.000704   0.126941   0.419117  -0.117546  -0.000351   0.000413
     23      -0.000014  -0.010655  -0.034292   0.009281   0.000032  -0.000037
     24      -0.001524  -0.484007   0.091925   0.031636   0.420368   0.643827
     25       0.009575  -0.037967  -0.021586  -0.006747  -0.341461  -0.528671
     26      -0.000923  -0.007430   0.003665   0.001524   0.039593   0.061190
     27       0.058945  -0.200717  -0.001317  -0.133202  -0.003802  -0.003316
     28       0.577738  -0.124495   0.040728   0.079172  -0.007863   0.000207
     29       0.399137  -0.071615   0.023775  -0.019913   0.011429  -0.003305
     30      -0.027220  -0.020994  -0.286101  -0.141037  -0.000590   0.001180
     31      -0.023516  -0.045361  -0.327812  -0.171537  -0.000041  -0.000266
     32       0.001070   0.003201   0.019839   0.010671  -0.000023   0.000053
     33      -0.022992  -0.343700   0.158582  -0.018990  -0.742803   0.480396
     34       0.019528   0.093718  -0.194670   0.030299  -0.381091   0.249919
     35      -0.002328  -0.016042   0.019696  -0.003034   0.014105  -0.009340
     36       0.083554  -0.207053   0.000065  -0.141730  -0.003239  -0.003540
     37       0.493822  -0.112041   0.036594   0.082763  -0.009704   0.000862
     38      -0.494377   0.082804  -0.031315  -0.002938  -0.009723   0.003291
                  36         37         38    
      0       0.001831   0.000033   0.000737
      1       0.002080   0.000081  -0.000008
      2      -0.000156   0.000312   0.000020
      3      -0.002127  -0.000009  -0.000026
      4      -0.000112  -0.000105  -0.000102
      5      -0.000032  -0.000974   0.000006
      6      -0.006838  -0.002349   0.000328
      7      -0.060846   0.006426  -0.001368
      8       0.004136   0.079880   0.000138
      9       0.003443   0.000139   0.000661
     10      -0.000507  -0.000101  -0.000452
     11       0.000131  -0.000615   0.000044
     12       0.000222   0.000012  -0.060027
     13       0.000355   0.000011   0.042700
     14      -0.000018   0.000194  -0.005421
     15       0.000185   0.000006   0.000609
     16      -0.001053  -0.000032  -0.000482
     17       0.000090  -0.000104   0.000062
     18      -0.001137  -0.000002  -0.000619
     19      -0.000261  -0.000023  -0.000370
     20      -0.000006  -0.000031   0.000016
     21      -0.000036  -0.000005  -0.000057
     22       0.000534   0.000012   0.000329
     23      -0.000039   0.000034  -0.000031
     24       0.004893   0.000372  -0.000343
     25      -0.003549  -0.000334   0.000514
     26       0.000422  -0.001325  -0.000057
     27       0.059283   0.062261   0.001128
     28       0.356533   0.390785   0.004025
     29      -0.592110  -0.597834  -0.007008
     30      -0.009372  -0.000245   0.814864
     31       0.008694   0.000266  -0.570162
     32      -0.001016   0.001293   0.072932
     33      -0.015072  -0.000354   0.000208
     34      -0.006298  -0.000005  -0.000819
     35       0.000118   0.001575   0.000064
     36       0.031116  -0.031458   0.000828
     37       0.476009  -0.478104   0.005196
     38       0.535688  -0.499996   0.006140


-----------
IR SPECTRUM
-----------

 Mode    freq (cm**-1)   T**2         TX         TY         TZ
-------------------------------------------------------------------
   7:       134.53    9.789816  ( -0.105727   0.238463   3.117976)
   8:       285.36    1.843637  ( -0.035811   0.127246   1.351356)
   9:       392.18   59.025434  (  5.985496  -4.777058   0.615624)
  10:       475.63   42.357071  (  2.627909   5.946439  -0.301698)
  11:       511.31   48.636250  (  0.230266  -0.501547  -6.952099)
  12:       531.20   30.106387  ( -4.761940  -2.723388   0.116086)
  13:       542.47    8.360150  ( -0.859775   2.723082  -0.453608)
  14:       665.18    1.004596  (  0.105321   0.004665   0.996735)
  15:       670.78  117.049635  ( -0.307156   0.867735  10.779718)
  16:       690.46   12.936421  (  1.429553  -3.291832   0.237998)
  17:       807.50  116.560263  ( -0.227200   0.850437  10.760362)
  18:       869.42   16.522527  ( -3.086571   2.631204  -0.269017)
  19:       921.11    0.492638  (  0.096736  -0.065254  -0.692114)
  20:       949.71    2.746848  ( -0.684520  -1.507686   0.071853)
  21:       979.94    1.038870  ( -0.514510   0.382848  -0.792198)
  22:       982.48   17.637448  (  3.276518  -2.609619   0.302927)
  23:      1157.39   66.456410  ( -4.032863  -7.062366   0.561622)
  24:      1247.18  153.037641  (  3.509411  11.827733  -0.909071)
  25:      1269.49    1.768567  ( -0.127099   0.284144   1.292933)
  26:      1330.40  463.578038  ( 19.721394  -8.533318   1.351716)
  27:      1365.35   94.440647  ( -9.103850  -3.399380  -0.069142)
  28:      1384.62   46.268880  (  5.899965   3.378957  -0.204800)
  29:      1443.30  134.019457  ( -7.218052  -9.034919   0.537986)
  30:      1477.58  116.749064  (  0.999063  10.714636  -0.973400)
  31:      1741.68   24.884228  ( -4.982575   0.145257  -0.192540)
  32:      1817.44  981.991252  ( -7.699041 -30.291239   2.270878)
  33:      1903.70  728.365775  (-23.262333 -13.676721   0.420651)
  34:      3235.24   19.806462  ( -1.512273  -4.173108   0.323514)
  35:      3249.21   23.332236  (  4.493981  -1.745168   0.301259)
  36:      3339.25  300.288215  ( -0.266945  17.276667  -1.316708)
  37:      3366.01  247.125702  (  0.393772  -1.171353 -15.671585)
  38:      3536.23  210.227388  ( 11.130004  -9.226352   1.106725)

The first frequency considered to be a vibration is 7
The total number of vibrations considered is 32


--------------------------
THERMOCHEMISTRY AT 298.15K
--------------------------

Temperature         ... 298.15 K
Pressure            ... 1.00 atm
Total Mass          ... 113.10 AMU

Throughout the following assumptions are being made:
  (1) The electronic state is orbitally nondegenerate
  (2) There are no thermally accessible electronically excited states
  (3) Hindered rotations indicated by low frequency modes are not
      treated as such but are treated as vibrations and this may
      cause some error
  (4) All equations used are the standard statistical mechanics
      equations for an ideal gas
  (5) All vibrations are strictly harmonic

freq.     134.53  E(vib)   ...       0.42 
freq.     285.36  E(vib)   ...       0.28 
freq.     392.18  E(vib)   ...       0.20 
freq.     475.63  E(vib)   ...       0.15 
freq.     511.31  E(vib)   ...       0.14 
freq.     531.20  E(vib)   ...       0.13 
freq.     542.47  E(vib)   ...       0.12 
freq.     665.18  E(vib)   ...       0.08 
freq.     670.78  E(vib)   ...       0.08 
freq.     690.46  E(vib)   ...       0.07 
freq.     807.50  E(vib)   ...       0.05 
freq.     869.42  E(vib)   ...       0.04 
freq.     921.11  E(vib)   ...       0.03 
freq.     949.71  E(vib)   ...       0.03 
freq.     979.94  E(vib)   ...       0.02 
freq.     982.48  E(vib)   ...       0.02 
freq.    1157.39  E(vib)   ...       0.01 
freq.    1247.18  E(vib)   ...       0.01 
freq.    1269.49  E(vib)   ...       0.01 
freq.    1330.40  E(vib)   ...       0.01 
freq.    1365.35  E(vib)   ...       0.01 
freq.    1384.62  E(vib)   ...       0.00 
freq.    1443.30  E(vib)   ...       0.00 
freq.    1477.58  E(vib)   ...       0.00 
freq.    1741.68  E(vib)   ...       0.00 
freq.    1817.44  E(vib)   ...       0.00 
freq.    1903.70  E(vib)   ...       0.00 
freq.    3235.24  E(vib)   ...       0.00 
freq.    3249.21  E(vib)   ...       0.00 
freq.    3339.25  E(vib)   ...       0.00 
freq.    3366.01  E(vib)   ...       0.00 
freq.    3536.23  E(vib)   ...       0.00 

------------
INNER ENERGY
------------

The inner energy is: U= E(el) + E(ZPE) + E(vib) + E(rot) + E(trans)
    E(el)   - is the total energy from the electronic structure calculation
              = E(kin-el) + E(nuc-el) + E(el-el) + E(nuc-nuc)
    E(ZPE)  - the the zero temperature vibrational energy from the frequency calculation
    E(vib)  - the the finite temperature correction to E(ZPE) due to population
              of excited vibrational states
    E(rot)  - is the rotational thermal energy
    E(trans)- is the translational thermal energy

Summary of contributions to the inner energy U:
Electronic energy                ...   -414.71474787 Eh
Zero point energy                ...      0.09858392 Eh      61.86 kcal/mol
Thermal vibrational correction   ...      0.00304980 Eh       1.91 kcal/mol
Thermal rotational correction    ...      0.00141627 Eh       0.89 kcal/mol
Thermal translational correction ...      0.00141627 Eh       0.89 kcal/mol
-----------------------------------------------------------------------
Total thermal energy                   -414.61028160 Eh


Summary of corrections to the electronic energy:
(perhaps to be used in another calculation)
Total thermal correction                  0.00588234 Eh       3.69 kcal/mol
Non-thermal (ZPE) correction              0.09858392 Eh      61.86 kcal/mol
-----------------------------------------------------------------------
Total correction                          0.10446626 Eh      65.55 kcal/mol


--------
ENTHALPY
--------

The enthalpy is H = U + kB*T
                kB is Boltzmann's constant
Total free energy                 ...   -414.61028160 Eh 
Thermal Enthalpy correction       ...      0.00094421 Eh       0.59 kcal/mol
-----------------------------------------------------------------------
Total Enthalpy                    ...   -414.60933740 Eh


Note: Only C1 symmetry has been detected, increase convergence thresholds 
      if your molecule has a higher symmetry. Symmetry factor of 1.0 is   
      used for the rotational entropy correction. 
 

Note: Rotational entropy computed according to Herzberg 
Infrared and Raman Spectra, Chapter V,1, Van Nostrand Reinhold, 1945 
Point Group:  C1, Symmetry Number:   1  
Rotational constants in cm-1:     0.120560     0.066204     0.043027 

Vibrational entropy computed according to the QRRHO of S. Grimme
Chem.Eur.J. 2012 18 9955


-------
ENTROPY
-------

The entropy contributions are T*S = T*(S(el)+S(vib)+S(rot)+S(trans))
     S(el)   - electronic entropy
     S(vib)  - vibrational entropy
     S(rot)  - rotational entropy
     S(trans)- translational entropy
The entropies will be listed as mutliplied by the temperature to get
units of energy

Electronic entropy                ...      0.00000000 Eh      0.00 kcal/mol
Vibrational entropy               ...      0.00467390 Eh      2.93 kcal/mol
Rotational entropy                ...      0.01327647 Eh      8.33 kcal/mol
Translational entropy             ...      0.01904554 Eh     11.95 kcal/mol
-----------------------------------------------------------------------
Final entropy term                ...      0.03699591 Eh     23.22 kcal/mol

In case the symmetry of your molecule has not been determined correctly
or in case you have a reason to use a different symmetry number we print 
out the resulting rotational entropy values for sn=1,12 :
 --------------------------------------------------------
|  sn= 1 | S(rot)=       0.01327647 Eh      8.33 kcal/mol|
|  sn= 2 | S(rot)=       0.01262201 Eh      7.92 kcal/mol|
|  sn= 3 | S(rot)=       0.01223918 Eh      7.68 kcal/mol|
|  sn= 4 | S(rot)=       0.01196756 Eh      7.51 kcal/mol|
|  sn= 5 | S(rot)=       0.01175687 Eh      7.38 kcal/mol|
|  sn= 6 | S(rot)=       0.01158472 Eh      7.27 kcal/mol|
|  sn= 7 | S(rot)=       0.01143918 Eh      7.18 kcal/mol|
|  sn= 8 | S(rot)=       0.01131310 Eh      7.10 kcal/mol|
|  sn= 9 | S(rot)=       0.01120189 Eh      7.03 kcal/mol|
|  sn=10 | S(rot)=       0.01110241 Eh      6.97 kcal/mol|
|  sn=11 | S(rot)=       0.01101242 Eh      6.91 kcal/mol|
|  sn=12 | S(rot)=       0.01093027 Eh      6.86 kcal/mol|
 --------------------------------------------------------


-------------------
GIBBS FREE ENERGY
-------------------

The Gibbs free energy is G = H - T*S

Total enthalpy                    ...   -414.60933740 Eh 
Total entropy correction          ...     -0.03699591 Eh    -23.22 kcal/mol
-----------------------------------------------------------------------
Final Gibbs free energy         ...   -414.64633330 Eh

For completeness - the Gibbs free energy minus the electronic energy
G-E(el)                           ...      0.06841456 Eh     42.93 kcal/mol


Timings for individual modules:

Sum of individual times         ...      695.486 sec (=  11.591 min)
GTO integral calculation        ...       10.850 sec (=   0.181 min)   1.6 %
SCF iterations                  ...      144.103 sec (=   2.402 min)  20.7 %
SCF Gradient evaluation         ...       66.173 sec (=   1.103 min)   9.5 %
Geometry relaxation             ...        3.484 sec (=   0.058 min)   0.5 %
Analytical frequency calculation...      470.876 sec (=   7.848 min)  67.7 %
                             ****ORCA TERMINATED NORMALLY****
TOTAL RUN TIME: 0 days 0 hours 11 minutes 36 seconds 433 msec
